calculator: aims
length_unit: angstrom
nqpoint: 459    
npath: 9      
segment_nqpoint:
- 51
- 51
- 51
- 51
- 51
- 51
- 51
- 51
- 51
labels:
- [ 'G', 'X' ]
- [ 'X', 'P' ]
- [ 'P', 'N' ]
- [ 'N', 'G' ]
- [ 'G', 'M' ]
- [ 'M', 'S0' ]
- [ 'S0', 'X' ]
- [ 'X', 'G' ]
- [ 'G', 'M' ]
reciprocal_lattice:
- [  -0.00000000,   0.20184010,   0.03947423 ] # a*
- [   0.20184010,   0.00000000,   0.03947423 ] # b*
- [   0.20184010,   0.20184010,   0.00000000 ] # c*
natom: 12     
lattice:
- [    -2.477208430000000,     2.477208430000000,    12.666491120000000 ] # a
- [     2.477208430000000,    -2.477208430000000,    12.666491120000000 ] # b
- [     2.477208430000000,     2.477208430000000,   -12.666491120000000 ] # c
points:
- symbol: Ba # 1
  coordinates: [  0.000000000000000,  0.000000000000000,  0.000000000000000 ]
  mass: 137.327000
- symbol: Ba # 2
  coordinates: [  0.180531580000000,  0.180531580000000,  0.000000000000000 ]
  mass: 137.327000
- symbol: Ba # 3
  coordinates: [  0.819468420000000,  0.819468420000000,  0.000000000000000 ]
  mass: 137.327000
- symbol: S  # 4
  coordinates: [  0.500000000000000,  0.500000000000000,  0.000000000000000 ]
  mass: 32.065000
- symbol: S  # 5
  coordinates: [  0.300914200000000,  0.300914200000000,  0.000000000000000 ]
  mass: 32.065000
- symbol: S  # 6
  coordinates: [  0.699085800000000,  0.699085800000000,  0.000000000000000 ]
  mass: 32.065000
- symbol: S  # 7
  coordinates: [  0.904023600000000,  0.404023600000000,  0.500000000000000 ]
  mass: 32.065000
- symbol: S  # 8
  coordinates: [  0.404023600000000,  0.904023600000000,  0.500000000000000 ]
  mass: 32.065000
- symbol: S  # 9
  coordinates: [  0.095976400000000,  0.595976400000000,  0.500000000000000 ]
  mass: 32.065000
- symbol: S  # 10
  coordinates: [  0.595976400000000,  0.095976400000000,  0.500000000000000 ]
  mass: 32.065000
- symbol: Zr # 11
  coordinates: [  0.399471810000000,  0.399471810000000,  0.000000000000000 ]
  mass: 91.224000
- symbol: Zr # 12
  coordinates: [  0.600528190000000,  0.600528190000000,  0.000000000000000 ]
  mass: 91.224000

phonon:
- q-position: [    0.0000000,    0.0000000,    0.0000000 ]
  distance:    0.0000000
  band:
  - # 1
    frequency:   -0.3089453569
  - # 2
    frequency:   -0.1137775708
  - # 3
    frequency:   -0.0000883600
  - # 4
    frequency:    0.7118553233
  - # 5
    frequency:    0.7304704283
  - # 6
    frequency:    0.8572911248
  - # 7
    frequency:    0.8574303163
  - # 8
    frequency:    0.9169093083
  - # 9
    frequency:    0.9963789791
  - # 10
    frequency:    1.9768858449
  - # 11
    frequency:    1.9772429707
  - # 12
    frequency:    2.0545603033
  - # 13
    frequency:    2.3599321109
  - # 14
    frequency:    2.3874900098
  - # 15
    frequency:    2.7663667387
  - # 16
    frequency:    2.7768631744
  - # 17
    frequency:    2.8035542503
  - # 18
    frequency:    2.8036314684
  - # 19
    frequency:    2.9046898106
  - # 20
    frequency:    3.1639462110
  - # 21
    frequency:    3.1648257937
  - # 22
    frequency:    3.4322029522
  - # 23
    frequency:    3.5471965255
  - # 24
    frequency:    3.6493347529
  - # 25
    frequency:    3.6970912715
  - # 26
    frequency:    3.8947789354
  - # 27
    frequency:    4.0674713435
  - # 28
    frequency:    4.4183037590
  - # 29
    frequency:    6.2183573242
  - # 30
    frequency:    8.7734141298
  - # 31
    frequency:   10.3386155052
  - # 32
    frequency:   10.7292126916
  - # 33
    frequency:   10.7299581084
  - # 34
    frequency:   10.7378476088
  - # 35
    frequency:   10.7378987926
  - # 36
    frequency:   11.4009599975

- q-position: [    0.0000000,    0.0000000,    0.0100000 ]
  distance:    0.0028545
  band:
  - # 1
    frequency:   -0.3028107779
  - # 2
    frequency:    0.0975814224
  - # 3
    frequency:    0.0986270517
  - # 4
    frequency:    0.7210675317
  - # 5
    frequency:    0.7359855309
  - # 6
    frequency:    0.8606706821
  - # 7
    frequency:    0.8686700533
  - # 8
    frequency:    0.9382375572
  - # 9
    frequency:    1.0005043490
  - # 10
    frequency:    1.9628815518
  - # 11
    frequency:    1.9822090705
  - # 12
    frequency:    2.0732073719
  - # 13
    frequency:    2.3723658527
  - # 14
    frequency:    2.4043833174
  - # 15
    frequency:    2.7693096978
  - # 16
    frequency:    2.7897353485
  - # 17
    frequency:    2.8059477025
  - # 18
    frequency:    2.8168689153
  - # 19
    frequency:    2.9063599268
  - # 20
    frequency:    3.1609460359
  - # 21
    frequency:    3.1645905662
  - # 22
    frequency:    3.4348958014
  - # 23
    frequency:    3.5541070205
  - # 24
    frequency:    3.6365579639
  - # 25
    frequency:    3.6805168290
  - # 26
    frequency:    3.9101091566
  - # 27
    frequency:    4.0791004404
  - # 28
    frequency:    4.4202907064
  - # 29
    frequency:    6.2184793293
  - # 30
    frequency:    8.7738853199
  - # 31
    frequency:   10.3341848911
  - # 32
    frequency:   10.7278610987
  - # 33
    frequency:   10.7309011187
  - # 34
    frequency:   10.7380957718
  - # 35
    frequency:   10.7425764375
  - # 36
    frequency:   11.4141576161

- q-position: [    0.0000000,    0.0000000,    0.0200000 ]
  distance:    0.0057089
  band:
  - # 1
    frequency:   -0.2847747864
  - # 2
    frequency:    0.1953567381
  - # 3
    frequency:    0.2749766133
  - # 4
    frequency:    0.7464838840
  - # 5
    frequency:    0.7519528038
  - # 6
    frequency:    0.8700615224
  - # 7
    frequency:    0.9013522189
  - # 8
    frequency:    0.9990159079
  - # 9
    frequency:    1.0130241982
  - # 10
    frequency:    1.9388197037
  - # 11
    frequency:    1.9971358172
  - # 12
    frequency:    2.1096779493
  - # 13
    frequency:    2.4082557743
  - # 14
    frequency:    2.4481075168
  - # 15
    frequency:    2.7781215129
  - # 16
    frequency:    2.8132440857
  - # 17
    frequency:    2.8317924885
  - # 18
    frequency:    2.8571594622
  - # 19
    frequency:    2.9117743117
  - # 20
    frequency:    3.1530452109
  - # 21
    frequency:    3.1646007407
  - # 22
    frequency:    3.4424885696
  - # 23
    frequency:    3.5736491164
  - # 24
    frequency:    3.6019942082
  - # 25
    frequency:    3.6410963108
  - # 26
    frequency:    3.9461009018
  - # 27
    frequency:    4.1104805868
  - # 28
    frequency:    4.4263687158
  - # 29
    frequency:    6.2188416978
  - # 30
    frequency:    8.7752925195
  - # 31
    frequency:   10.3219618836
  - # 32
    frequency:   10.7007084482
  - # 33
    frequency:   10.7355902210
  - # 34
    frequency:   10.7391260791
  - # 35
    frequency:   10.7782951237
  - # 36
    frequency:   11.4516588862

- q-position: [    0.0000000,    0.0000000,    0.0300000 ]
  distance:    0.0085634
  band:
  - # 1
    frequency:   -0.2543182187
  - # 2
    frequency:    0.2883651064
  - # 3
    frequency:    0.4249440019
  - # 4
    frequency:    0.7766819000
  - # 5
    frequency:    0.7848526098
  - # 6
    frequency:    0.8847287195
  - # 7
    frequency:    0.9514582111
  - # 8
    frequency:    1.0343581714
  - # 9
    frequency:    1.0902739322
  - # 10
    frequency:    1.9166464516
  - # 11
    frequency:    2.0218381111
  - # 12
    frequency:    2.1490674257
  - # 13
    frequency:    2.4636596018
  - # 14
    frequency:    2.5005076502
  - # 15
    frequency:    2.7927519168
  - # 16
    frequency:    2.8258541891
  - # 17
    frequency:    2.8990360463
  - # 18
    frequency:    2.9189846266
  - # 19
    frequency:    2.9394283100
  - # 20
    frequency:    3.1430031435
  - # 21
    frequency:    3.1674672229
  - # 22
    frequency:    3.4532970154
  - # 23
    frequency:    3.5511417865
  - # 24
    frequency:    3.5928974535
  - # 25
    frequency:    3.6049731039
  - # 26
    frequency:    3.9900610566
  - # 27
    frequency:    4.1547673863
  - # 28
    frequency:    4.4368855157
  - # 29
    frequency:    6.2194336528
  - # 30
    frequency:    8.7776167406
  - # 31
    frequency:   10.3041615315
  - # 32
    frequency:   10.6606689420
  - # 33
    frequency:   10.7387685267
  - # 34
    frequency:   10.7451822676
  - # 35
    frequency:   10.8348340661
  - # 36
    frequency:   11.5087036904

- q-position: [    0.0000000,    0.0000000,    0.0400000 ]
  distance:    0.0114178
  band:
  - # 1
    frequency:   -0.2076609884
  - # 2
    frequency:    0.3760391797
  - # 3
    frequency:    0.5613718624
  - # 4
    frequency:    0.8075079721
  - # 5
    frequency:    0.8353013879
  - # 6
    frequency:    0.9035274454
  - # 7
    frequency:    1.0139016773
  - # 8
    frequency:    1.0651416490
  - # 9
    frequency:    1.2010481156
  - # 10
    frequency:    1.8980713657
  - # 11
    frequency:    2.0554070685
  - # 12
    frequency:    2.1873221638
  - # 13
    frequency:    2.5326378630
  - # 14
    frequency:    2.5454672804
  - # 15
    frequency:    2.8129856680
  - # 16
    frequency:    2.8447518331
  - # 17
    frequency:    2.9251258613
  - # 18
    frequency:    2.9916147296
  - # 19
    frequency:    3.0597203762
  - # 20
    frequency:    3.1343643456
  - # 21
    frequency:    3.1838748337
  - # 22
    frequency:    3.4620023601
  - # 23
    frequency:    3.4917709962
  - # 24
    frequency:    3.5473289119
  - # 25
    frequency:    3.6435003125
  - # 26
    frequency:    4.0362034163
  - # 27
    frequency:    4.2063978819
  - # 28
    frequency:    4.4524055712
  - # 29
    frequency:    6.2202378576
  - # 30
    frequency:    8.7808267179
  - # 31
    frequency:   10.2826257844
  - # 32
    frequency:   10.6125499453
  - # 33
    frequency:   10.7399428486
  - # 34
    frequency:   10.7563223880
  - # 35
    frequency:   10.9094626363
  - # 36
    frequency:   11.5803752026

- q-position: [    0.0000000,    0.0000000,    0.0500000 ]
  distance:    0.0142723
  band:
  - # 1
    frequency:   -0.1297095637
  - # 2
    frequency:    0.4571835279
  - # 3
    frequency:    0.6813223515
  - # 4
    frequency:    0.8411278768
  - # 5
    frequency:    0.8991757609
  - # 6
    frequency:    0.9252726766
  - # 7
    frequency:    1.0835450364
  - # 8
    frequency:    1.1060251669
  - # 9
    frequency:    1.3224173096
  - # 10
    frequency:    1.8829210606
  - # 11
    frequency:    2.0959149195
  - # 12
    frequency:    2.2232780339
  - # 13
    frequency:    2.5802335229
  - # 14
    frequency:    2.6076299530
  - # 15
    frequency:    2.8377467755
  - # 16
    frequency:    2.8720236507
  - # 17
    frequency:    2.9393290810
  - # 18
    frequency:    3.0855865479
  - # 19
    frequency:    3.1313441081
  - # 20
    frequency:    3.1450000338
  - # 21
    frequency:    3.2869547086
  - # 22
    frequency:    3.4264852951
  - # 23
    frequency:    3.4497721721
  - # 24
    frequency:    3.5283863044
  - # 25
    frequency:    3.6881814498
  - # 26
    frequency:    4.0823753725
  - # 27
    frequency:    4.2619632229
  - # 28
    frequency:    4.4736818957
  - # 29
    frequency:    6.2212316196
  - # 30
    frequency:    8.7848793872
  - # 31
    frequency:   10.2582759898
  - # 32
    frequency:   10.5600263491
  - # 33
    frequency:   10.7409027780
  - # 34
    frequency:   10.7701707062
  - # 35
    frequency:   11.0000668654
  - # 36
    frequency:   11.6627907870

- q-position: [    0.0000000,    0.0000000,    0.0600000 ]
  distance:    0.0171267
  band:
  - # 1
    frequency:    0.1182903788
  - # 2
    frequency:    0.5312022209
  - # 3
    frequency:    0.7803117616
  - # 4
    frequency:    0.8743308915
  - # 5
    frequency:    0.9487487010
  - # 6
    frequency:    0.9776739964
  - # 7
    frequency:    1.1558770134
  - # 8
    frequency:    1.1572253751
  - # 9
    frequency:    1.4482417805
  - # 10
    frequency:    1.8710179808
  - # 11
    frequency:    2.1404725848
  - # 12
    frequency:    2.2565244623
  - # 13
    frequency:    2.6091582630
  - # 14
    frequency:    2.6803294983
  - # 15
    frequency:    2.8643855320
  - # 16
    frequency:    2.9098728064
  - # 17
    frequency:    2.9556217619
  - # 18
    frequency:    3.1398929622
  - # 19
    frequency:    3.1648869391
  - # 20
    frequency:    3.1854518041
  - # 21
    frequency:    3.3578532619
  - # 22
    frequency:    3.4089235471
  - # 23
    frequency:    3.4847572191
  - # 24
    frequency:    3.5491829918
  - # 25
    frequency:    3.7373005316
  - # 26
    frequency:    4.1281174417
  - # 27
    frequency:    4.3195267206
  - # 28
    frequency:    4.5016188759
  - # 29
    frequency:    6.2223890763
  - # 30
    frequency:    8.7897204356
  - # 31
    frequency:   10.2312655385
  - # 32
    frequency:   10.5056882746
  - # 33
    frequency:   10.7415688624
  - # 34
    frequency:   10.7860919562
  - # 35
    frequency:   11.1049293088
  - # 36
    frequency:   11.7531264876

- q-position: [    0.0000000,    0.0000000,    0.0700000 ]
  distance:    0.0199812
  band:
  - # 1
    frequency:    0.2218002329
  - # 2
    frequency:    0.5981149966
  - # 3
    frequency:    0.8587637000
  - # 4
    frequency:    0.9049245965
  - # 5
    frequency:    0.9725889369
  - # 6
    frequency:    1.0667085343
  - # 7
    frequency:    1.2179890055
  - # 8
    frequency:    1.2273017617
  - # 9
    frequency:    1.5738367523
  - # 10
    frequency:    1.8629286848
  - # 11
    frequency:    2.1855949103
  - # 12
    frequency:    2.2866510293
  - # 13
    frequency:    2.6362389922
  - # 14
    frequency:    2.7445692779
  - # 15
    frequency:    2.8898201851
  - # 16
    frequency:    2.9551183378
  - # 17
    frequency:    2.9746855305
  - # 18
    frequency:    3.1690930408
  - # 19
    frequency:    3.1916118801
  - # 20
    frequency:    3.2423556051
  - # 21
    frequency:    3.2880543878
  - # 22
    frequency:    3.4023560373
  - # 23
    frequency:    3.5727264162
  - # 24
    frequency:    3.7094697093
  - # 25
    frequency:    3.7896738338
  - # 26
    frequency:    4.1744599244
  - # 27
    frequency:    4.3779826503
  - # 28
    frequency:    4.5372629569
  - # 29
    frequency:    6.2236848005
  - # 30
    frequency:    8.7952849109
  - # 31
    frequency:   10.2012746354
  - # 32
    frequency:   10.4513766303
  - # 33
    frequency:   10.7417272146
  - # 34
    frequency:   10.8034845762
  - # 35
    frequency:   11.2224394685
  - # 36
    frequency:   11.8492920583

- q-position: [    0.0000000,    0.0000000,    0.0800000 ]
  distance:    0.0228356
  band:
  - # 1
    frequency:    0.2978493465
  - # 2
    frequency:    0.6583667040
  - # 3
    frequency:    0.9222510755
  - # 4
    frequency:    0.9320556289
  - # 5
    frequency:    0.9953639996
  - # 6
    frequency:    1.1572972941
  - # 7
    frequency:    1.2864843703
  - # 8
    frequency:    1.2952163542
  - # 9
    frequency:    1.6927602298
  - # 10
    frequency:    1.8622313991
  - # 11
    frequency:    2.2278327694
  - # 12
    frequency:    2.3129808690
  - # 13
    frequency:    2.6634386739
  - # 14
    frequency:    2.7987235438
  - # 15
    frequency:    2.9101566393
  - # 16
    frequency:    2.9963603746
  - # 17
    frequency:    3.0001669643
  - # 18
    frequency:    3.2050583581
  - # 19
    frequency:    3.2200100436
  - # 20
    frequency:    3.2273757741
  - # 21
    frequency:    3.2523491529
  - # 22
    frequency:    3.4436558666
  - # 23
    frequency:    3.6316441782
  - # 24
    frequency:    3.8444471253
  - # 25
    frequency:    3.9221825044
  - # 26
    frequency:    4.2256110733
  - # 27
    frequency:    4.4366804442
  - # 28
    frequency:    4.5819185750
  - # 29
    frequency:    6.2250993238
  - # 30
    frequency:    8.8014979607
  - # 31
    frequency:   10.1677694554
  - # 32
    frequency:   10.3984449104
  - # 33
    frequency:   10.7411386815
  - # 34
    frequency:   10.8217038941
  - # 35
    frequency:   11.3508980150
  - # 36
    frequency:   11.9496376781

- q-position: [    0.0000000,    0.0000000,    0.0900000 ]
  distance:    0.0256901
  band:
  - # 1
    frequency:    0.3640427157
  - # 2
    frequency:    0.7125455368
  - # 3
    frequency:    0.9556653536
  - # 4
    frequency:    0.9755307496
  - # 5
    frequency:    1.0159066293
  - # 6
    frequency:    1.2419904167
  - # 7
    frequency:    1.3579935731
  - # 8
    frequency:    1.3602947951
  - # 9
    frequency:    1.7815236716
  - # 10
    frequency:    1.8901367270
  - # 11
    frequency:    2.2645502188
  - # 12
    frequency:    2.3347309897
  - # 13
    frequency:    2.6907708248
  - # 14
    frequency:    2.8415694867
  - # 15
    frequency:    2.9204934087
  - # 16
    frequency:    3.0163851342
  - # 17
    frequency:    3.0440731913
  - # 18
    frequency:    3.1612875737
  - # 19
    frequency:    3.1801976599
  - # 20
    frequency:    3.2888310213
  - # 21
    frequency:    3.3117022161
  - # 22
    frequency:    3.4869972795
  - # 23
    frequency:    3.7162925454
  - # 24
    frequency:    3.9009960712
  - # 25
    frequency:    4.1083892975
  - # 26
    frequency:    4.2978964825
  - # 27
    frequency:    4.4952237305
  - # 28
    frequency:    4.6375972499
  - # 29
    frequency:    6.2266271353
  - # 30
    frequency:    8.8082758330
  - # 31
    frequency:   10.1302458362
  - # 32
    frequency:   10.3478465530
  - # 33
    frequency:   10.7395636902
  - # 34
    frequency:   10.8400729149
  - # 35
    frequency:   11.4884267913
  - # 36
    frequency:   12.0527645261

- q-position: [    0.0000000,    0.0000000,    0.1000000 ]
  distance:    0.0285445
  band:
  - # 1
    frequency:    0.4250101508
  - # 2
    frequency:    0.7611573839
  - # 3
    frequency:    0.9758106534
  - # 4
    frequency:    1.0208242742
  - # 5
    frequency:    1.0335184638
  - # 6
    frequency:    1.3168959386
  - # 7
    frequency:    1.4148984868
  - # 8
    frequency:    1.4370500265
  - # 9
    frequency:    1.8075993702
  - # 10
    frequency:    1.9769993068
  - # 11
    frequency:    2.2945119787
  - # 12
    frequency:    2.3515348550
  - # 13
    frequency:    2.7167787371
  - # 14
    frequency:    2.8613771913
  - # 15
    frequency:    2.9238332619
  - # 16
    frequency:    3.0154509096
  - # 17
    frequency:    3.0701214746
  - # 18
    frequency:    3.1440063173
  - # 19
    frequency:    3.1707635453
  - # 20
    frequency:    3.3454565162
  - # 21
    frequency:    3.4118390236
  - # 22
    frequency:    3.5160879112
  - # 23
    frequency:    3.8154220321
  - # 24
    frequency:    3.9588677856
  - # 25
    frequency:    4.2239346572
  - # 26
    frequency:    4.4260195876
  - # 27
    frequency:    4.5533624347
  - # 28
    frequency:    4.7082415296
  - # 29
    frequency:    6.2282877920
  - # 30
    frequency:    8.8155272924
  - # 31
    frequency:   10.0884761282
  - # 32
    frequency:   10.3000784202
  - # 33
    frequency:   10.7367778522
  - # 34
    frequency:   10.8579040822
  - # 35
    frequency:   11.6329558282
  - # 36
    frequency:   12.1574198595

- q-position: [    0.0000000,    0.0000000,    0.1100000 ]
  distance:    0.0313990
  band:
  - # 1
    frequency:    0.4827180307
  - # 2
    frequency:    0.8045130323
  - # 3
    frequency:    0.9923502839
  - # 4
    frequency:    1.0479478875
  - # 5
    frequency:    1.0589741712
  - # 6
    frequency:    1.3806636325
  - # 7
    frequency:    1.4658954676
  - # 8
    frequency:    1.5147869336
  - # 9
    frequency:    1.8098864799
  - # 10
    frequency:    2.0812503813
  - # 11
    frequency:    2.3179295791
  - # 12
    frequency:    2.3641893433
  - # 13
    frequency:    2.7396294473
  - # 14
    frequency:    2.8359007423
  - # 15
    frequency:    2.9355044227
  - # 16
    frequency:    2.9772372034
  - # 17
    frequency:    3.0552025797
  - # 18
    frequency:    3.2025429644
  - # 19
    frequency:    3.2083155382
  - # 20
    frequency:    3.4142288716
  - # 21
    frequency:    3.5190108687
  - # 22
    frequency:    3.5365104600
  - # 23
    frequency:    3.9148592674
  - # 24
    frequency:    4.0177537937
  - # 25
    frequency:    4.2882257111
  - # 26
    frequency:    4.5798633199
  - # 27
    frequency:    4.6109331929
  - # 28
    frequency:    4.8017413166
  - # 29
    frequency:    6.2301409105
  - # 30
    frequency:    8.8231555766
  - # 31
    frequency:   10.0426818205
  - # 32
    frequency:   10.2551117344
  - # 33
    frequency:   10.7325846954
  - # 34
    frequency:   10.8745238136
  - # 35
    frequency:   11.7822605680
  - # 36
    frequency:   12.2624472118

- q-position: [    0.0000000,    0.0000000,    0.1200000 ]
  distance:    0.0342534
  band:
  - # 1
    frequency:    0.5381399018
  - # 2
    frequency:    0.8427018619
  - # 3
    frequency:    1.0049064014
  - # 4
    frequency:    1.0592880107
  - # 5
    frequency:    1.0903847910
  - # 6
    frequency:    1.4335327990
  - # 7
    frequency:    1.5113180412
  - # 8
    frequency:    1.5920233155
  - # 9
    frequency:    1.8077008699
  - # 10
    frequency:    2.1788842128
  - # 11
    frequency:    2.3359878994
  - # 12
    frequency:    2.3760746804
  - # 13
    frequency:    2.7582756626
  - # 14
    frequency:    2.7772151228
  - # 15
    frequency:    2.9194163090
  - # 16
    frequency:    2.9462387847
  - # 17
    frequency:    3.0450690568
  - # 18
    frequency:    3.2777853107
  - # 19
    frequency:    3.2886902401
  - # 20
    frequency:    3.4915598891
  - # 21
    frequency:    3.5545018611
  - # 22
    frequency:    3.6281276440
  - # 23
    frequency:    4.0067461968
  - # 24
    frequency:    4.0774892849
  - # 25
    frequency:    4.3398784502
  - # 26
    frequency:    4.6678260865
  - # 27
    frequency:    4.7117914909
  - # 28
    frequency:    4.9251124668
  - # 29
    frequency:    6.2323059574
  - # 30
    frequency:    8.8310609409
  - # 31
    frequency:    9.9935170158
  - # 32
    frequency:   10.2124619341
  - # 33
    frequency:   10.7268260688
  - # 34
    frequency:   10.8892972585
  - # 35
    frequency:   11.9340293755
  - # 36
    frequency:   12.3667696139

- q-position: [    0.0000000,    0.0000000,    0.1300000 ]
  distance:    0.0371079
  band:
  - # 1
    frequency:    0.5917530627
  - # 2
    frequency:    0.8756034893
  - # 3
    frequency:    1.0129422364
  - # 4
    frequency:    1.0678673424
  - # 5
    frequency:    1.1154479976
  - # 6
    frequency:    1.4766999041
  - # 7
    frequency:    1.5515338058
  - # 8
    frequency:    1.6676798896
  - # 9
    frequency:    1.8042636446
  - # 10
    frequency:    2.2553746974
  - # 11
    frequency:    2.3502151292
  - # 12
    frequency:    2.3973389773
  - # 13
    frequency:    2.7030518560
  - # 14
    frequency:    2.7719622284
  - # 15
    frequency:    2.8562544877
  - # 16
    frequency:    2.9476241302
  - # 17
    frequency:    3.0432840167
  - # 18
    frequency:    3.3633679603
  - # 19
    frequency:    3.3880331603
  - # 20
    frequency:    3.5543459144
  - # 21
    frequency:    3.5960041898
  - # 22
    frequency:    3.7363120432
  - # 23
    frequency:    4.0878225148
  - # 24
    frequency:    4.1380766758
  - # 25
    frequency:    4.3894560740
  - # 26
    frequency:    4.7239672358
  - # 27
    frequency:    4.8198886014
  - # 28
    frequency:    5.0675842225
  - # 29
    frequency:    6.2349878060
  - # 30
    frequency:    8.8391437446
  - # 31
    frequency:    9.9418755023
  - # 32
    frequency:   10.1714066144
  - # 33
    frequency:   10.7193898806
  - # 34
    frequency:   10.9016515656
  - # 35
    frequency:   12.0859461459
  - # 36
    frequency:   12.4693912651

- q-position: [    0.0000000,    0.0000000,    0.1400000 ]
  distance:    0.0399623
  band:
  - # 1
    frequency:    0.6437364426
  - # 2
    frequency:    0.9028969246
  - # 3
    frequency:    1.0159264542
  - # 4
    frequency:    1.0740957360
  - # 5
    frequency:    1.1346855182
  - # 6
    frequency:    1.5117027902
  - # 7
    frequency:    1.5868175506
  - # 8
    frequency:    1.7409446752
  - # 9
    frequency:    1.8003699341
  - # 10
    frequency:    2.2930847868
  - # 11
    frequency:    2.3619865154
  - # 12
    frequency:    2.4430889939
  - # 13
    frequency:    2.6216486327
  - # 14
    frequency:    2.7648470812
  - # 15
    frequency:    2.8104277104
  - # 16
    frequency:    2.9402099554
  - # 17
    frequency:    3.0435402805
  - # 18
    frequency:    3.4491676230
  - # 19
    frequency:    3.4961956625
  - # 20
    frequency:    3.5863071163
  - # 21
    frequency:    3.6863014478
  - # 22
    frequency:    3.8418452974
  - # 23
    frequency:    4.1577517203
  - # 24
    frequency:    4.1997321677
  - # 25
    frequency:    4.4392096588
  - # 26
    frequency:    4.7793122990
  - # 27
    frequency:    4.9177810468
  - # 28
    frequency:    5.2105527887
  - # 29
    frequency:    6.2385084837
  - # 30
    frequency:    8.8473079263
  - # 31
    frequency:    9.8886695223
  - # 32
    frequency:   10.1312161240
  - # 33
    frequency:   10.7102147386
  - # 34
    frequency:   10.9110961635
  - # 35
    frequency:   12.2357759428
  - # 36
    frequency:   12.5694082842

- q-position: [    0.0000000,    0.0000000,    0.1500000 ]
  distance:    0.0428168
  band:
  - # 1
    frequency:    0.6940699549
  - # 2
    frequency:    0.9240224858
  - # 3
    frequency:    1.0135705363
  - # 4
    frequency:    1.0782703368
  - # 5
    frequency:    1.1487522052
  - # 6
    frequency:    1.5398301810
  - # 7
    frequency:    1.6173806371
  - # 8
    frequency:    1.7965293350
  - # 9
    frequency:    1.8111012824
  - # 10
    frequency:    2.2997487538
  - # 11
    frequency:    2.3721206657
  - # 12
    frequency:    2.5010543549
  - # 13
    frequency:    2.5372649351
  - # 14
    frequency:    2.7086737972
  - # 15
    frequency:    2.8174156714
  - # 16
    frequency:    2.9261453300
  - # 17
    frequency:    3.0408851621
  - # 18
    frequency:    3.5045368462
  - # 19
    frequency:    3.6104328933
  - # 20
    frequency:    3.6501059193
  - # 21
    frequency:    3.7883807963
  - # 22
    frequency:    3.9435792512
  - # 23
    frequency:    4.2179899717
  - # 24
    frequency:    4.2629479951
  - # 25
    frequency:    4.4891615145
  - # 26
    frequency:    4.8338484127
  - # 27
    frequency:    5.0124452732
  - # 28
    frequency:    5.3438195592
  - # 29
    frequency:    6.2433432691
  - # 30
    frequency:    8.8554646307
  - # 31
    frequency:    9.8346949335
  - # 32
    frequency:   10.0912894277
  - # 33
    frequency:   10.6992911668
  - # 34
    frequency:   10.9172387541
  - # 35
    frequency:   12.3814442947
  - # 36
    frequency:   12.6660225005

- q-position: [    0.0000000,    0.0000000,    0.1600000 ]
  distance:    0.0456712
  band:
  - # 1
    frequency:    0.7425957679
  - # 2
    frequency:    0.9379786414
  - # 3
    frequency:    1.0061083611
  - # 4
    frequency:    1.0804666332
  - # 5
    frequency:    1.1583753781
  - # 6
    frequency:    1.5617698229
  - # 7
    frequency:    1.6432810866
  - # 8
    frequency:    1.7935656666
  - # 9
    frequency:    1.8772633900
  - # 10
    frequency:    2.2932808049
  - # 11
    frequency:    2.3793510209
  - # 12
    frequency:    2.4545310463
  - # 13
    frequency:    2.5385781277
  - # 14
    frequency:    2.6562767241
  - # 15
    frequency:    2.8412416979
  - # 16
    frequency:    2.9068815579
  - # 17
    frequency:    3.0325751140
  - # 18
    frequency:    3.5237903501
  - # 19
    frequency:    3.7286616094
  - # 20
    frequency:    3.7532710314
  - # 21
    frequency:    3.8963023237
  - # 22
    frequency:    4.0406278150
  - # 23
    frequency:    4.2707402556
  - # 24
    frequency:    4.3285410418
  - # 25
    frequency:    4.5387189680
  - # 26
    frequency:    4.8876031992
  - # 27
    frequency:    5.1055486339
  - # 28
    frequency:    5.4631960135
  - # 29
    frequency:    6.2501528376
  - # 30
    frequency:    8.8635356941
  - # 31
    frequency:    9.7805896635
  - # 32
    frequency:   10.0511925583
  - # 33
    frequency:   10.6866592609
  - # 34
    frequency:   10.9197959969
  - # 35
    frequency:   12.5211035621
  - # 36
    frequency:   12.7585544168

- q-position: [    0.0000000,    0.0000000,    0.1700000 ]
  distance:    0.0485257
  band:
  - # 1
    frequency:    0.7890617509
  - # 2
    frequency:    0.9425841202
  - # 3
    frequency:    0.9949095796
  - # 4
    frequency:    1.0805809153
  - # 5
    frequency:    1.1642774768
  - # 6
    frequency:    1.5775497941
  - # 7
    frequency:    1.6640966688
  - # 8
    frequency:    1.7929912546
  - # 9
    frequency:    1.9377761314
  - # 10
    frequency:    2.2810960859
  - # 11
    frequency:    2.3542598792
  - # 12
    frequency:    2.4061372629
  - # 13
    frequency:    2.5139905657
  - # 14
    frequency:    2.6482971662
  - # 15
    frequency:    2.8774063220
  - # 16
    frequency:    2.8833393454
  - # 17
    frequency:    3.0172730966
  - # 18
    frequency:    3.5290282827
  - # 19
    frequency:    3.8490677693
  - # 20
    frequency:    3.8719935122
  - # 21
    frequency:    4.0082801386
  - # 22
    frequency:    4.1323155088
  - # 23
    frequency:    4.3182097854
  - # 24
    frequency:    4.3976112081
  - # 25
    frequency:    4.5873291528
  - # 26
    frequency:    4.9406601099
  - # 27
    frequency:    5.1969311711
  - # 28
    frequency:    5.5668855951
  - # 29
    frequency:    6.2597889885
  - # 30
    frequency:    8.8714566811
  - # 31
    frequency:    9.7268434109
  - # 32
    frequency:   10.0106441719
  - # 33
    frequency:   10.6724028694
  - # 34
    frequency:   10.9185982278
  - # 35
    frequency:   12.6531825680
  - # 36
    frequency:   12.8464529550

- q-position: [    0.0000000,    0.0000000,    0.1800000 ]
  distance:    0.0513801
  band:
  - # 1
    frequency:    0.8331531403
  - # 2
    frequency:    0.9332894700
  - # 3
    frequency:    0.9834324095
  - # 4
    frequency:    1.0784254302
  - # 5
    frequency:    1.1671128838
  - # 6
    frequency:    1.5866600663
  - # 7
    frequency:    1.6786854288
  - # 8
    frequency:    1.7970863424
  - # 9
    frequency:    1.9883708921
  - # 10