phonopy:
  version: "2.20.0"
  calculator: aims
  frequency_unit_conversion_factor: 15.633302
  symmetry_tolerance: 1.00000e-05
  configuration:
    band: "0.0                 0.0                0.0                0.0                 0.0                0.5                0.25                0.25               0.25               0.0                 0.5                0.0                0.0                 0.0                0.0                0.5                 0.5                -0.5               -0.274879709942669  0.274879709942669  0.274879709942669  0.0                 0.0                0.5                0.0                 0.0                0.0                0.5                 0.5                -0.5"
    band_labels: "G X P N G M S0 X G M"
    band_points: "51"
    fc_symmetry: ".TRUE."

physical_unit:
  atomic_mass: "AMU"
  length: "angstrom"
  force_constants: "eV/angstrom^2"

space_group:
  type: "I4/mmm"
  number: 139
  Hall_symbol: "-I 4 2"

supercell_matrix:
- [   4,   0,   0 ]
- [   0,   4,   0 ]
- [   0,   0,   1 ]

primitive_cell:
  lattice:
  - [    -2.477208430000000,     2.477208430000000,    12.666491120000000 ] # a
  - [     2.477208430000000,    -2.477208430000000,    12.666491120000000 ] # b
  - [     2.477208430000000,     2.477208430000000,   -12.666491120000000 ] # c
  points:
  - symbol: Ba # 1
    coordinates: [  0.000000000000000,  0.000000000000000,  0.000000000000000 ]
    mass: 137.327000
  - symbol: Ba # 2
    coordinates: [  0.180531580000000,  0.180531580000000,  0.000000000000000 ]
    mass: 137.327000
  - symbol: Ba # 3
    coordinates: [  0.819468420000000,  0.819468420000000,  0.000000000000000 ]
    mass: 137.327000
  - symbol: S  # 4
    coordinates: [  0.500000000000000,  0.500000000000000,  0.000000000000000 ]
    mass: 32.065000
  - symbol: S  # 5
    coordinates: [  0.300914200000000,  0.300914200000000,  0.000000000000000 ]
    mass: 32.065000
  - symbol: S  # 6
    coordinates: [  0.699085800000000,  0.699085800000000,  0.000000000000000 ]
    mass: 32.065000
  - symbol: S  # 7
    coordinates: [  0.904023600000000,  0.404023600000000,  0.500000000000000 ]
    mass: 32.065000
  - symbol: S  # 8
    coordinates: [  0.404023600000000,  0.904023600000000,  0.500000000000000 ]
    mass: 32.065000
  - symbol: S  # 9
    coordinates: [  0.095976400000000,  0.595976400000000,  0.500000000000000 ]
    mass: 32.065000
  - symbol: S  # 10
    coordinates: [  0.595976400000000,  0.095976400000000,  0.500000000000000 ]
    mass: 32.065000
  - symbol: Zr # 11
    coordinates: [  0.399471810000000,  0.399471810000000,  0.000000000000000 ]
    mass: 91.224000
  - symbol: Zr # 12
    coordinates: [  0.600528190000000,  0.600528190000000,  0.000000000000000 ]
    mass: 91.224000
  reciprocal_lattice: # without 2pi
  - [    -0.000000000000000,     0.201840101117369,     0.039474231281820 ] # a*
  - [     0.201840101117369,     0.000000000000000,     0.039474231281820 ] # b*
  - [     0.201840101117369,     0.201840101117369,     0.000000000000000 ] # c*

unit_cell:
  lattice:
  - [    -2.477208430000000,     2.477208430000000,    12.666491120000000 ] # a
  - [     2.477208430000000,    -2.477208430000000,    12.666491120000000 ] # b
  - [     2.477208430000000,     2.477208430000000,   -12.666491120000000 ] # c
  points:
  - symbol: Ba # 1
    coordinates: [  0.000000000000000,  0.000000000000000,  0.000000000000000 ]
    mass: 137.327000
    reduced_to: 1
  - symbol: Ba # 2
    coordinates: [  0.180531580000000,  0.180531580000000,  0.000000000000000 ]
    mass: 137.327000
    reduced_to: 2
  - symbol: Ba # 3
    coordinates: [  0.819468420000000,  0.819468420000000,  0.000000000000000 ]
    mass: 137.327000
    reduced_to: 3
  - symbol: S  # 4
    coordinates: [  0.500000000000000,  0.500000000000000,  0.000000000000000 ]
    mass: 32.065000
    reduced_to: 4
  - symbol: S  # 5
    coordinates: [  0.300914200000000,  0.300914200000000,  0.000000000000000 ]
    mass: 32.065000
    reduced_to: 5
  - symbol: S  # 6
    coordinates: [  0.699085800000000,  0.699085800000000,  0.000000000000000 ]
    mass: 32.065000
    reduced_to: 6
  - symbol: S  # 7
    coordinates: [  0.904023600000000,  0.404023600000000,  0.500000000000000 ]
    mass: 32.065000
    reduced_to: 7
  - symbol: S  # 8
    coordinates: [  0.404023600000000,  0.904023600000000,  0.500000000000000 ]
    mass: 32.065000
    reduced_to: 8
  - symbol: S  # 9
    coordinates: [  0.095976400000000,  0.595976400000000,  0.500000000000000 ]
    mass: 32.065000
    reduced_to: 9
  - symbol: S  # 10
    coordinates: [  0.595976400000000,  0.095976400000000,  0.500000000000000 ]
    mass: 32.065000
    reduced_to: 10
  - symbol: Zr # 11
    coordinates: [  0.399471810000000,  0.399471810000000,  0.000000000000000 ]
    mass: 91.224000
    reduced_to: 11
  - symbol: Zr # 12
    coordinates: [  0.600528190000000,  0.600528190000000,  1.000000000000000 ]
    mass: 91.224000
    reduced_to: 12

supercell:
  lattice:
  - [    -9.908833720000001,     9.908833720000001,    50.665964480000000 ] # a
  - [     9.908833720000001,    -9.908833720000001,    50.665964480000000 ] # b
  - [     2.477208430000000,     2.477208430000000,   -12.666491120000000 ] # c
  points:
  - symbol: Ba # 1
    coordinates: [  0.000000000000000,  0.000000000000000,  0.000000000000000 ]
    mass: 137.327000
    reduced_to: 1
  - symbol: Ba # 2
    coordinates: [  0.250000000000000,  0.000000000000000,  0.000000000000000 ]
    mass: 137.327000
    reduced_to: 1
  - symbol: Ba # 3
    coordinates: [  0.500000000000000,  0.000000000000000,  0.000000000000000 ]
    mass: 137.327000
    reduced_to: 1
  - symbol: Ba # 4
    coordinates: [  0.750000000000000,  0.000000000000000,  0.000000000000000 ]
    mass: 137.327000
    reduced_to: 1
  - symbol: Ba # 5
    coordinates: [  0.000000000000000,  0.250000000000000,  0.000000000000000 ]
    mass: 137.327000
    reduced_to: 1
  - symbol: Ba # 6
    coordinates: [  0.250000000000000,  0.250000000000000,  0.000000000000000 ]
    mass: 137.327000
    reduced_to: 1
  - symbol: Ba # 7
    coordinates: [  0.500000000000000,  0.250000000000000,  0.000000000000000 ]
    mass: 137.327000
    reduced_to: 1
  - symbol: Ba # 8
    coordinates: [  0.750000000000000,  0.250000000000000,  0.000000000000000 ]
    mass: 137.327000
    reduced_to: 1
  - symbol: Ba # 9
    coordinates: [  0.000000000000000,  0.500000000000000,  0.000000000000000 ]
    mass: 137.327000
    reduced_to: 1
  - symbol: Ba # 10
    coordinates: [  0.250000000000000,  0.500000000000000,  0.000000000000000 ]
    mass: 137.327000
    reduced_to: 1
  - symbol: Ba # 11
    coordinates: [  0.500000000000000,  0.500000000000000,  0.000000000000000 ]
    mass: 137.327000
    reduced_to: 1
  - symbol: Ba # 12
    coordinates: [  0.750000000000000,  0.500000000000000,  0.000000000000000 ]
    mass: 137.327000
    reduced_to: 1
  - symbol: Ba # 13
    coordinates: [  0.000000000000000,  0.750000000000000,  0.000000000000000 ]
    mass: 137.327000
    reduced_to: 1
  - symbol: Ba # 14
    coordinates: [  0.250000000000000,  0.750000000000000,  0.000000000000000 ]
    mass: 137.327000
    reduced_to: 1
  - symbol: Ba # 15
    coordinates: [  0.500000000000000,  0.750000000000000,  0.000000000000000 ]
    mass: 137.327000
    reduced_to: 1
  - symbol: Ba # 16
    coordinates: [  0.750000000000000,  0.750000000000000,  0.000000000000000 ]
    mass: 137.327000
    reduced_to: 1
  - symbol: Ba # 17
    coordinates: [  0.045132895000000,  0.045132895000000,  0.000000000000000 ]
    mass: 137.327000
    reduced_to: 17
  - symbol: Ba # 18
    coordinates: [  0.295132895000000,  0.045132895000000,  0.000000000000000 ]
    mass: 137.327000
    reduced_to: 17
  - symbol: Ba # 19
    coordinates: [  0.545132895000000,  0.045132895000000,  0.000000000000000 ]
    mass: 137.327000
    reduced_to: 17
  - symbol: Ba # 20
    coordinates: [  0.795132895000000,  0.045132895000000,  0.000000000000000 ]
    mass: 137.327000
    reduced_to: 17
  - symbol: Ba # 21
    coordinates: [  0.045132895000000,  0.295132895000000,  0.000000000000000 ]
    mass: 137.327000
    reduced_to: 17
  - symbol: Ba # 22
    coordinates: [  0.295132895000000,  0.295132895000000,  0.000000000000000 ]
    mass: 137.327000
    reduced_to: 17
  - symbol: Ba # 23
    coordinates: [  0.545132895000000,  0.295132895000000,  0.000000000000000 ]
    mass: 137.327000
    reduced_to: 17
  - symbol: Ba # 24
    coordinates: [  0.795132895000000,  0.295132895000000,  0.000000000000000 ]
    mass: 137.327000
    reduced_to: 17
  - symbol: Ba # 25
    coordinates: [  0.045132895000000,  0.545132895000000,  0.000000000000000 ]
    mass: 137.327000
    reduced_to: 17
  - symbol: Ba # 26
    coordinates: [  0.295132895000000,  0.545132895000000,  0.000000000000000 ]
    mass: 137.327000
    reduced_to: 17
  - symbol: Ba # 27
    coordinates: [  0.545132895000000,  0.545132895000000,  0.000000000000000 ]
    mass: 137.327000
    reduced_to: 17
  - symbol: Ba # 28
    coordinates: [  0.795132895000000,  0.545132895000000,  0.000000000000000 ]
    mass: 137.327000
    reduced_to: 17
  - symbol: Ba # 29
    coordinates: [  0.045132895000000,  0.795132895000000,  0.000000000000000 ]
    mass: 137.327000
    reduced_to: 17
  - symbol: Ba # 30
    coordinates: [  0.295132895000000,  0.795132895000000,  0.000000000000000 ]
    mass: 137.327000
    reduced_to: 17
  - symbol: Ba # 31
    coordinates: [  0.545132895000000,  0.795132895000000,  0.000000000000000 ]
    mass: 137.327000
    reduced_to: 17
  - symbol: Ba # 32
    coordinates: [  0.795132895000000,  0.795132895000000,  0.000000000000000 ]
    mass: 137.327000
    reduced_to: 17
  - symbol: Ba # 33
    coordinates: [  0.204867105000000,  0.204867105000000,  0.000000000000000 ]
    mass: 137.327000
    reduced_to: 33
  - symbol: Ba # 34
    coordinates: [  0.454867105000000,  0.204867105000000,  0.000000000000000 ]
    mass: 137.327000
    reduced_to: 33
  - symbol: Ba # 35
    coordinates: [  0.704867105000000,  0.204867105000000,  0.000000000000000 ]
    mass: 137.327000
    reduced_to: 33
  - symbol: Ba # 36
    coordinates: [  0.954867105000000,  0.204867105000000,  0.000000000000000 ]
    mass: 137.327000
    reduced_to: 33
  - symbol: Ba # 37
    coordinates: [  0.204867105000000,  0.454867105000000,  0.000000000000000 ]
    mass: 137.327000
    reduced_to: 33
  - symbol: Ba # 38
    coordinates: [  0.454867105000000,  0.454867105000000,  0.000000000000000 ]
    mass: 137.327000
    reduced_to: 33
  - symbol: Ba # 39
    coordinates: [  0.704867105000000,  0.454867105000000,  0.000000000000000 ]
    mass: 137.327000
    reduced_to: 33
  - symbol: Ba # 40
    coordinates: [  0.954867105000000,  0.454867105000000,  0.000000000000000 ]
    mass: 137.327000
    reduced_to: 33
  - symbol: Ba # 41
    coordinates: [  0.204867105000000,  0.704867105000000,  0.000000000000000 ]
    mass: 137.327000
    reduced_to: 33
  - symbol: Ba # 42
    coordinates: [  0.454867105000000,  0.704867105000000,  0.000000000000000 ]
    mass: 137.327000
    reduced_to: 33
  - symbol: Ba # 43
    coordinates: [  0.704867105000000,  0.704867105000000,  0.000000000000000 ]
    mass: 137.327000
    reduced_to: 33
  - symbol: Ba # 44
    coordinates: [  0.954867105000000,  0.704867105000000,  0.000000000000000 ]
    mass: 137.327000
    reduced_to: 33
  - symbol: Ba # 45
    coordinates: [  0.204867105000000,  0.954867105000000,  0.000000000000000 ]
    mass: 137.327000
    reduced_to: 33
  - symbol: Ba # 46
    coordinates: [  0.454867105000000,  0.954867105000000,  0.000000000000000 ]
    mass: 137.327000
    reduced_to: 33
  - symbol: Ba # 47
    coordinates: [  0.704867105000000,  0.954867105000000,  0.000000000000000 ]
    mass: 137.327000
    reduced_to: 33
  - symbol: Ba # 48
    coordinates: [  0.954867105000000,  0.954867105000000,  0.000000000000000 ]
    mass: 137.327000
    reduced_to: 33
  - symbol: S  # 49
    coordinates: [  0.125000000000000,  0.125000000000000,  0.000000000000000 ]
    mass: 32.065000
    reduced_to: 49
  - symbol: S  # 50
    coordinates: [  0.375000000000000,  0.125000000000000,  0.000000000000000 ]
    mass: 32.065000
    reduced_to: 49
  - symbol: S  # 51
    coordinates: [  0.625000000000000,  0.125000000000000,  0.000000000000000 ]
    mass: 32.065000
    reduced_to: 49
  - symbol: S  # 52
    coordinates: [  0.875000000000000,  0.125000000000000,  0.000000000000000 ]
    mass: 32.065000
    reduced_to: 49
  - symbol: S  # 53
    coordinates: [  0.125000000000000,  0.375000000000000,  0.000000000000000 ]
    mass: 32.065000
    reduced_to: 49
  - symbol: S  # 54
    coordinates: [  0.375000000000000,  0.375000000000000,  0.000000000000000 ]
    mass: 32.065000
    reduced_to: 49
  - symbol: S  # 55
    coordinates: [  0.625000000000000,  0.375000000000000,  0.000000000000000 ]
    mass: 32.065000
    reduced_to: 49
  - symbol: S  # 56
    coordinates: [  0.875000000000000,  0.375000000000000,  0.000000000000000 ]
    mass: 32.065000
    reduced_to: 49
  - symbol: S  # 57
    coordinates: [  0.125000000000000,  0.625000000000000,  0.000000000000000 ]
    mass: 32.065000
    reduced_to: 49
  - symbol: S  # 58
    coordinates: [  0.375000000000000,  0.625000000000000,  0.000000000000000 ]
    mass: 32.065000
    reduced_to: 49
  - symbol: S  # 59
    coordinates: [  0.625000000000000,  0.625000000000000,  0.000000000000000 ]
    mass: 32.065000
    reduced_to: 49
  - symbol: S  # 60
    coordinates: [  0.875000000000000,  0.625000000000000,  0.000000000000000 ]
    mass: 32.065000
    reduced_to: 49
  - symbol: S  # 61
    coordinates: [  0.125000000000000,  0.875000000000000,  0.000000000000000 ]
    mass: 32.065000
    reduced_to: 49
  - symbol: S  # 62
    coordinates: [  0.375000000000000,  0.875000000000000,  0.000000000000000 ]
    mass: 32.065000
    reduced_to: 49
  - symbol: S  # 63
    coordinates: [  0.625000000000000,  0.875000000000000,  0.000000000000000 ]
    mass: 32.065000
    reduced_to: 49
  - symbol: S  # 64
    coordinates: [  0.875000000000000,  0.875000000000000,  0.000000000000000 ]
    mass: 32.065000
    reduced_to: 49
  - symbol: S  # 65
    coordinates: [  0.075228550000000,  0.075228550000000,  0.000000000000000 ]
    mass: 32.065000
    reduced_to: 65
  - symbol: S  # 66
    coordinates: [  0.325228550000000,  0.075228550000000,  0.000000000000000 ]
    mass: 32.065000
    reduced_to: 65
  - symbol: S  # 67
    coordinates: [  0.575228550000000,  0.075228550000000,  0.000000000000000 ]
    mass: 32.065000
    reduced_to: 65
  - symbol: S  # 68
    coordinates: [  0.825228550000000,  0.075228550000000,  0.000000000000000 ]
    mass: 32.065000
    reduced_to: 65
  - symbol: S  # 69
    coordinates: [  0.075228550000000,  0.325228550000000,  0.000000000000000 ]
    mass: 32.065000
    reduced_to: 65
  - symbol: S  # 70
    coordinates: [  0.325228550000000,  0.325228550000000,  0.000000000000000 ]
    mass: 32.065000
    reduced_to: 65
  - symbol: S  # 71
    coordinates: [  0.575228550000000,  0.325228550000000,  0.000000000000000 ]
    mass: 32.065000
    reduced_to: 65
  - symbol: S  # 72
    coordinates: [  0.825228550000000,  0.325228550000000,  0.000000000000000 ]
    mass: 32.065000
    reduced_to: 65
  - symbol: S  # 73
    coordinates: [  0.075228550000000,  0.575228550000000,  0.000000000000000 ]
    mass: 32.065000
    reduced_to: 65
  - symbol: S  # 74
    coordinates: [  0.325228550000000,  0.575228550000000,  0.000000000000000 ]
    mass: 32.065000
    reduced_to: 65
  - symbol: S  # 75
    coordinates: [  0.575228550000000,  0.575228550000000,  0.000000000000000 ]
    mass: 32.065000
    reduced_to: 65
  - symbol: S  # 76
    coordinates: [  0.825228550000000,  0.575228550000000,  0.000000000000000 ]
    mass: 32.065000
    reduced_to: 65
  - symbol: S  # 77
    coordinates: [  0.075228550000000,  0.825228550000000,  0.000000000000000 ]
    mass: 32.065000
    reduced_to: 65
  - symbol: S  # 78
    coordinates: [  0.325228550000000,  0.825228550000000,  0.000000000000000 ]
    mass: 32.065000
    reduced_to: 65
  - symbol: S  # 79
    coordinates: [  0.575228550000000,  0.825228550000000,  0.000000000000000 ]
    mass: 32.065000
    reduced_to: 65
  - symbol: S  # 80
    coordinates: [  0.825228550000000,  0.825228550000000,  0.000000000000000 ]
    mass: 32.065000
    reduced_to: 65
  - symbol: S  # 81
    coordinates: [  0.174771450000000,  0.174771450000000,  0.000000000000000 ]
    mass: 32.065000
    reduced_to: 81
  - symbol: S  # 82
    coordinates: [  0.424771450000000,  0.174771450000000,  0.000000000000000 ]
    mass: 32.065000
    reduced_to: 81
  - symbol: S  # 83
    coordinates: [  0.674771450000000,  0.174771450000000,  0.000000000000000 ]
    mass: 32.065000
    reduced_to: 81
  - symbol: S  # 84
    coordinates: [  0.924771450000000,  0.174771450000000,  0.000000000000000 ]
    mass: 32.065000
    reduced_to: 81
  - symbol: S  # 85
    coordinates: [  0.174771450000000,  0.424771450000000,  0.000000000000000 ]
    mass: 32.065000
    reduced_to: 81
  - symbol: S  # 86
    coordinates: [  0.424771450000000,  0.424771450000000,  0.000000000000000 ]
    mass: 32.065000
    reduced_to: 81
  - symbol: S  # 87
    coordinates: [  0.674771450000000,  0.424771450000000,  0.000000000000000 ]
    mass: 32.065000
    reduced_to: 81
  - symbol: S  # 88
    coordinates: [  0.924771450000000,  0.424771450000000,  0.000000000000000 ]
    mass: 32.065000
    reduced_to: 81
  - symbol: S  # 89
    coordinates: [  0.174771450000000,  0.674771450000000,  0.000000000000000 ]
    mass: 32.065000
    reduced_to: 81
  - symbol: S  # 90
    coordinates: [  0.424771450000000,  0.674771450000000,  0.000000000000000 ]
    mass: 32.065000
    reduced_to: 81
  - symbol: S  # 91
    coordinates: [  0.674771450000000,  0.674771450000000,  0.000000000000000 ]
    mass: 32.065000
    reduced_to: 81
  - symbol: S  # 92
    coordinates: [  0.924771450000000,  0.674771450000000,  0.000000000000000 ]
    mass: 32.065000
    reduced_to: 81
  - symbol: S  # 93
    coordinates: [  0.174771450000000,  0.924771450000000,  0.000000000000000 ]
    mass: 32.065000
    reduced_to: 81
  - symbol: S  # 94
    coordinates: [  0.424771450000000,  0.924771450000000,  0.000000000000000 ]
    mass: 32.065000
    reduced_to: 81
  - symbol: S  # 95
    coordinates: [  0.674771450000000,  0.924771450000000,  0.000000000000000 ]
    mass: 32.065000
    reduced_to: 81
  - symbol: S  # 96
    coordinates: [  0.924771450000000,  0.924771450000000,  0.000000000000000 ]
    mass: 32.065000
    reduced_to: 81
  - symbol: S  # 97
    coordinates: [  0.226005900000000,  0.101005900000000,  0.500000000000000 ]
    mass: 32.065000
    reduced_to: 97
  - symbol: S  # 98
    coordinates: [  0.476005900000000,  0.101005900000000,  0.500000000000000 ]
    mass: 32.065000
    reduced_to: 97
  - symbol: S  # 99
    coordinates: [  0.726005900000000,  0.101005900000000,  0.500000000000000 ]
    mass: 32.065000
    reduced_to: 97
  - symbol: S  # 100
    coordinates: [  0.976005900000000,  0.101005900000000,  0.500000000000000 ]
    mass: 32.065000
    reduced_to: 97
  - symbol: S  # 101
    coordinates: [  0.226005900000000,  0.351005900000000,  0.500000000000000 ]
    mass: 32.065000
    reduced_to: 97
  - symbol: S  # 102
    coordinates: [  0.476005900000000,  0.351005900000000,  0.500000000000000 ]
    mass: 32.065000
    reduced_to: 97
  - symbol: S  # 103
    coordinates: [  0.726005900000000,  0.351005900000000,  0.500000000000000 ]
    mass: 32.065000
    reduced_to: 97
  - symbol: S  # 104
    coordinates: [  0.976005900000000,  0.351005900000000,  0.500000000000000 ]
    mass: 32.065000
    reduced_to: 97
  - symbol: S  # 105
    coordinates: [  0.226005900000000,  0.601005900000000,  0.500000000000000 ]
    mass: 32.065000
    reduced_to: 97
  - symbol: S  # 106
    coordinates: [  0.476005900000000,  0.601005900000000,  0.500000000000000 ]
    mass: 32.065000
    reduced_to: 97
  - symbol: S  # 107
    coordinates: [  0.726005900000000,  0.601005900000000,  0.500000000000000 ]
    mass: 32.065000
    reduced_to: 97
  - symbol: S  # 108
    coordinates: [  0.976005900000000,  0.601005900000000,  0.500000000000000 ]
    mass: 32.065000
    reduced_to: 97
  - symbol: S  # 109
    coordinates: [  0.226005900000000,  0.851005900000000,  0.500000000000000 ]
    mass: 32.065000
    reduced_to: 97
  - symbol: S  # 110
    coordinates: [  0.476005900000000,  0.851005900000000,  0.500000000000000 ]
    mass: 32.065000
    reduced_to: 97
  - symbol: S  # 111
    coordinates: [  0.726005900000000,  0.851005900000000,  0.500000000000000 ]
    mass: 32.065000
    reduced_to: 97
  - symbol: S  # 112
    coordinates: [  0.976005900000000,  0.851005900000000,  0.500000000000000 ]
    mass: 32.065000
    reduced_to: 97
  - symbol: S  # 113
    coordinates: [  0.101005900000000,  0.226005900000000,  0.500000000000000 ]
    mass: 32.065000
    reduced_to: 113
  - symbol: S  # 114
    coordinates: [  0.351005900000000,  0.226005900000000,  0.500000000000000 ]
    mass: 32.065000
    reduced_to: 113
  - symbol: S  # 115
    coordinates: [  0.601005900000000,  0.226005900000000,  0.500000000000000 ]
    mass: 32.065000
    reduced_to: 113
  - symbol: S  # 116
    coordinates: [  0.851005900000000,  0.226005900000000,  0.500000000000000 ]
    mass: 32.065000
    reduced_to: 113
  - symbol: S  # 117
    coordinates: [  0.101005900000000,  0.476005900000000,  0.500000000000000 ]
    mass: 32.065000
    reduced_to: 113
  - symbol: S  # 118
    coordinates: [  0.351005900000000,  0.476005900000000,  0.500000000000000 ]
    mass: 32.065000
    reduced_to: 113
  - symbol: S  # 119
    coordinates: [  0.601005900000000,  0.476005900000000,  0.500000000000000 ]
    mass: 32.065000
    reduced_to: 113
  - symbol: S  # 120
    coordinates: [  0.851005900000000,  0.476005900000000,  0.500000000000000 ]
    mass: 32.065000
    reduced_to: 113
  - symbol: S  # 121
    coordinates: [  0.101005900000000,  0.726005900000000,  0.500000000000000 ]
    mass: 32.065000
    reduced_to: 113
  - symbol: S  # 122
    coordinates: [  0.351005900000000,  0.726005900000000,  0.500000000000000 ]
    mass: 32.065000
    reduced_to: 113
  - symbol: S  # 123
    coordinates: [  0.601005900000000,  0.726005900000000,  0.500000000000000 ]
    mass: 32.065000
    reduced_to: 113
  - symbol: S  # 124
    coordinates: [  0.851005900000000,  0.726005900000000,  0.500000000000000 ]
    mass: 32.065000
    reduced_to: 113
  - symbol: S  # 125
    coordinates: [  0.101005900000000,  0.976005900000000,  0.500000000000000 ]
    mass: 32.065000
    reduced_to: 113
  - symbol: S  # 126
    coordinates: [  0.351005900000000,  0.976005900000000,  0.500000000000000 ]
    mass: 32.065000
    reduced_to: 113
  - symbol: S  # 127
    coordinates: [  0.601005900000000,  0.976005900000000,  0.500000000000000 ]
    mass: 32.065000
    reduced_to: 113
  - symbol: S  # 128
    coordinates: [  0.851005900000000,  0.976005900000000,  0.500000000000000 ]
    mass: 32.065000
    reduced_to: 113
  - symbol: S  # 129
    coordinates: [  0.023994100000000,  0.148994100000000,  0.500000000000000 ]
    mass: 32.065000
    reduced_to: 129
  - symbol: S  # 130
    coordinates: [  0.273994100000000,  0.148994100000000,  0.500000000000000 ]
    mass: 32.065000
    reduced_to: 129
  - symbol: S  # 131
    coordinates: [  0.523994100000000,  0.148994100000000,  0.500000000000000 ]
    mass: 32.065000
    reduced_to: 129
  - symbol: S  # 132
    coordinates: [  0.773994100000000,  0.148994100000000,  0.500000000000000 ]
    mass: 32.065000
    reduced_to: 129
  - symbol: S  # 133
    coordinates: [  0.023994100000000,  0.398994100000000,  0.500000000000000 ]
    mass: 32.065000
    reduced_to: 129
  - symbol: S  # 134
    coordinates: [  0.273994100000000,  0.398994100000000,  0.500000000000000 ]
    mass: 32.065000
    reduced_to: 129
  - symbol: S  # 135
    coordinates: [  0.523994100000000,  0.398994100000000,  0.500000000000000 ]
    mass: 32.065000
    reduced_to: 129
  - symbol: S  # 136
    coordinates: [  0.773994100000000,  0.398994100000000,  0.500000000000000 ]
    mass: 32.065000
    reduced_to: 129
  - symbol: S  # 137
    coordinates: [  0.023994100000000,  0.648994100000000,  0.500000000000000 ]
    mass: 32.065000
    reduced_to: 129
  - symbol: S  # 138
    coordinates: [  0.273994100000000,  0.648994100000000,  0.500000000000000 ]
    mass: 32.065000
    reduced_to: 129
  - symbol: S  # 139
    coordinates: [  0.523994100000000,  0.648994100000000,  0.500000000000000 ]
    mass: 32.065000
    reduced_to: 129
  - symbol: S  # 140
    coordinates: [  0.773994100000000,  0.648994100000000,  0.500000000000000 ]
    mass: 32.065000
    reduced_to: 129
  - symbol: S  # 141
    coordinates: [  0.023994100000000,  0.898994100000000,  0.500000000000000 ]
    mass: 32.065000
    reduced_to: 129
  - symbol: S  # 142
    coordinates: [  0.273994100000000,  0.898994100000000,  0.500000000000000 ]
    mass: 32.065000
    reduced_to: 129
  - symbol: S  # 143
    coordinates: [  0.523994100000000,  0.898994100000000,  0.500000000000000 ]
    mass: 32.065000
    reduced_to: 129
  - symbol: S  # 144
    coordinates: [  0.773994100000000,  0.898994100000000,  0.500000000000000 ]
    mass: 32.065000
    reduced_to: 129
  - symbol: S  # 145
    coordinates: [  0.148994100000000,  0.023994100000000,  0.500000000000000 ]
    mass: 32.065000
    reduced_to: 145
  - symbol: S  # 146
    coordinates: [  0.398994100000000,  0.023994100000000,  0.500000000000000 ]
    mass: 32.065000
    reduced_to: 145
  - symbol: S  # 147
    coordinates: [  0.648994100000000,  0.023994100000000,  0.500000000000000 ]
    mass: 32.065000
    reduced_to: 145
  - symbol: S  # 148
    coordinates: [  0.898994100000000,  0.023994100000000,  0.500000000000000 ]
    mass: 32.065000
    reduced_to: 145
  - symbol: S  # 149
    coordinates: [  0.148994100000000,  0.273994100000000,  0.500000000000000 ]
    mass: 32.065000
    reduced_to: 145
  - symbol: S  # 150
    coordinates: [  0.398994100000000,  0.273994100000000,  0.500000000000000 ]
    mass: 32.065000
    reduced_to: 145
  - symbol: S  # 151
    coordinates: [  0.648994100000000,  0.273994100000000,  0.500000000000000 ]
    mass: 32.065000
    reduced_to: 145
  - symbol: S  # 152
    coordinates: [  0.898994100000000,  0.273994100000000,  0.500000000000000 ]
    mass: 32.065000
    reduced_to: 145
  - symbol: S  # 153
    coordinates: [  0.148994100000000,  0.523994100000000,  0.500000000000000 ]
    mass: 32.065000
    reduced_to: 145
  - symbol: S  # 154
    coordinates: [  0.398994100000000,  0.523994100000000,  0.500000000000000 ]
    mass: 32.065000
    reduced_to: 145
  - symbol: S  # 155
    coordinates: [  0.648994100000000,  0.523994100000000,  0.500000000000000 ]
    mass: 32.065000
    reduced_to: 145
  - symbol: S  # 156
    coordinates: [  0.898994100000000,  0.523994100000000,  0.500000000000000 ]
    mass: 32.065000
    reduced_to: 145
  - symbol: S  # 157
    coordinates: [  0.148994100000000,  0.773994100000000,  0.500000000000000 ]
    mass: 32.065000
    reduced_to: 145
  - symbol: S  # 158
    coordinates: [  0.398994100000000,  0.773994100000000,  0.500000000000000 ]
    mass: 32.065000
    reduced_to: 145
  - symbol: S  # 159
    coordinates: [  0.648994100000000,  0.773994100000000,  0.500000000000000 ]
    mass: 32.065000
    reduced_to: 145
  - symbol: S  # 160
    coordinates: [  0.898994100000000,  0.773994100000000,  0.500000000000000 ]
    mass: 32.065000
    reduced_to: 145
  - symbol: Zr # 161
    coordinates: [  0.099867952500000,  0.099867952500000,  0.000000000000000 ]
    mass: 91.224000
    reduced_to: 161
  - symbol: Zr # 162
    coordinates: [  0.349867952500000,  0.099867952500000,  0.000000000000000 ]
    mass: 91.224000
    reduced_to: 161
  - symbol: Zr # 163
    coordinates: [  0.599867952500000,  0.099867952500000,  0.000000000000000 ]
    mass: 91.224000
    reduced_to: 161
  - symbol: Zr # 164
    coordinates: [  0.849867952500000,  0.099867952500000,  0.000000000000000 ]
    mass: 91.224000
    reduced_to: 161
  - symbol: Zr # 165
    coordinates: [  0.099867952500000,  0.349867952500000,  0.000000000000000 ]
    mass: 91.224000
    reduced_to: 161
  - symbol: Zr # 166
    coordinates: [  0.349867952500000,  0.349867952500000,  0.000000000000000 ]
    mass: 91.224000
    reduced_to: 161
  - symbol: Zr # 167
    coordinates: [  0.599867952500000,  0.349867952500000,  0.000000000000000 ]
    mass: 91.224000
    reduced_to: 161
  - symbol: Zr # 168
    coordinates: [  0.849867952500000,  0.349867952500000,  0.000000000000000 ]
    mass: 91.224000
    reduced_to: 161
  - symbol: Zr # 169
    coordinates: [  0.099867952500000,  0.599867952500000,  0.000000000000000 ]
    mass: 91.224000
    reduced_to: 161
  - symbol: Zr # 170
    coordinates: [  0.349867952500000,  0.599867952500000,  0.000000000000000 ]
    mass: 91.224000
    reduced_to: 161
  - symbol: Zr # 171
    coordinates: [  0.599867952500000,  0.599867952500000,  0.000000000000000 ]
    mass: 91.224000
    reduced_to: 161
  - symbol: Zr # 172
    coordinates: [  0.849867952500000,  0.599867952500000,  0.000000000000000 ]
    mass: 91.224000
    reduced_to: 161
  - symbol: Zr # 173
    coordinates: [  0.099867952500000,  0.849867952500000,  0.000000000000000 ]
    mass: 91.224000
    reduced_to: 161
  - symbol: Zr # 174
    coordinates: [  0.349867952500000,  0.849867952500000,  0.000000000000000 ]
    mass: 91.224000
    reduced_to: 161
  - symbol: Zr # 175
    coordinates: [  0.599867952500000,  0.849867952500000,  0.000000000000000 ]
    mass: 91.224000
    reduced_to: 161
  - symbol: Zr # 176
    coordinates: [  0.849867952500000,  0.849867952500000,  0.000000000000000 ]
    mass: 91.224000
    reduced_to: 161
  - symbol: Zr # 177
    coordinates: [  0.150132047500000,  0.150132047500000,  0.000000000000000 ]
    mass: 91.224000