------------------------------------------------------------
          Invoking FHI-aims ...

          When using FHI-aims, please cite the following reference:

            Volker Blum, Ralf Gehrke, Felix Hanke, Paula Havu,
            Ville Havu, Xinguo Ren, Karsten Reuter, and Matthias Scheffler,
            'Ab Initio Molecular Simulations with Numeric Atom-Centered Orbitals',
            Computer Physics Communications 180, 2175-2196 (2009)

          In addition, many other developments in FHI-aims are likely important for
          your particular application. A partial list of references is given at the end of
          this file. Thank you for giving credit to the authors of these developments.

          For any questions about FHI-aims, please visit our slack channel at

            https://fhi-aims.slack.com

          and our main development and support site at

            https://aims-git.rz-berlin.mpg.de .

          The latter site, in particular, has a wiki to collect information, as well
          as an issue tracker to log discussions, suggest improvements, and report issues
          or bugs. https://aims-git.rz-berlin.mpg.de is also the main development site
          of the project and all new and updated code versions can be obtained there.
          Please send an email to aims-coordinators@fhi-berlin.mpg.de and we will add
          you to these sites. They are for you and everyone is welcome there.

------------------------------------------------------------



  Date     :  20221024, Time     :  145857.634
  Time zero on CPU 1             :   0.894652000000000E+00  s.
  Internal wall clock time zero  :           435855537.634  s.

  FHI-aims created a unique identifier for this run for later identification
  aims_uuid : 63558450-DC1F-464C-AD18-851FC96043F1

  Build configuration of the current instance of FHI-aims
  -------------------------------------------------------
  FHI-aims version      : 220619
  Commit number         : 375d76c9a
  CMake host system     : Linux-4.12.14-197.78_9.1.64-cray_shasta_c
  CMake version         : 3.22.1
  Fortran compiler      : /opt/cray/pe/craype/2.7.6/bin/ftn (GNU) version 10.2.0
  Fortran compiler flags: -O2 -fallow-argument-mismatch -ffree-line-length-none
  C compiler            : /opt/cray/pe/craype/2.7.6/bin/cc (GNU) version 10.2.0
  C compiler flags      : -O2
  Using MPI
  Using ScaLAPACK
  Using LibXC
  Using i-PI
  Using RLSY
  Linking against:

  Using      576 parallel tasks.
  Task        0 on host nid004980 reporting.
  Task        1 on host nid004980 reporting.
  Task        2 on host nid004980 reporting.
  Task        3 on host nid004980 reporting.
  Task        4 on host nid004980 reporting.
  Task        5 on host nid004980 reporting.
  Task        6 on host nid004980 reporting.
  Task        7 on host nid004980 reporting.
  Task        8 on host nid004980 reporting.
  Task        9 on host nid004980 reporting.
  Task       10 on host nid004980 reporting.
  Task       11 on host nid004980 reporting.
  Task       12 on host nid004980 reporting.
  Task       13 on host nid004980 reporting.
  Task       14 on host nid004980 reporting.
  Task       15 on host nid004980 reporting.
  Task       16 on host nid004980 reporting.
  Task       17 on host nid004980 reporting.
  Task       18 on host nid004980 reporting.
  Task       19 on host nid004980 reporting.
  Task       20 on host nid004980 reporting.
  Task       21 on host nid004980 reporting.
  Task       22 on host nid004980 reporting.
  Task       23 on host nid004980 reporting.
  Task       24 on host nid004980 reporting.
  Task       25 on host nid004980 reporting.
  Task       26 on host nid004980 reporting.
  Task       27 on host nid004980 reporting.
  Task       28 on host nid004980 reporting.
  Task       29 on host nid004980 reporting.
  Task       30 on host nid004980 reporting.
  Task       31 on host nid004980 reporting.
  Task       32 on host nid004980 reporting.
  Task       33 on host nid004980 reporting.
  Task       34 on host nid004980 reporting.
  Task       35 on host nid004980 reporting.
  Task       36 on host nid004981 reporting.
  Task       37 on host nid004981 reporting.
  Task       38 on host nid004981 reporting.
  Task       39 on host nid004981 reporting.
  Task       40 on host nid004981 reporting.
  Task       41 on host nid004981 reporting.
  Task       42 on host nid004981 reporting.
  Task       43 on host nid004981 reporting.
  Task       44 on host nid004981 reporting.
  Task       45 on host nid004981 reporting.
  Task       46 on host nid004981 reporting.
  Task       47 on host nid004981 reporting.
  Task       48 on host nid004981 reporting.
  Task       49 on host nid004981 reporting.
  Task       50 on host nid004981 reporting.
  Task       51 on host nid004981 reporting.
  Task       52 on host nid004981 reporting.
  Task       53 on host nid004981 reporting.
  Task       54 on host nid004981 reporting.
  Task       55 on host nid004981 reporting.
  Task       56 on host nid004981 reporting.
  Task       57 on host nid004981 reporting.
  Task       58 on host nid004981 reporting.
  Task       59 on host nid004981 reporting.
  Task       60 on host nid004981 reporting.
  Task       61 on host nid004981 reporting.
  Task       62 on host nid004981 reporting.
  Task       63 on host nid004981 reporting.
  Task       64 on host nid004981 reporting.
  Task       65 on host nid004981 reporting.
  Task       66 on host nid004981 reporting.
  Task       67 on host nid004981 reporting.
  Task       68 on host nid004981 reporting.
  Task       69 on host nid004981 reporting.
  Task       70 on host nid004981 reporting.
  Task       71 on host nid004981 reporting.
  Task       72 on host nid005085 reporting.
  Task       73 on host nid005085 reporting.
  Task       74 on host nid005085 reporting.
  Task       75 on host nid005085 reporting.
  Task       76 on host nid005085 reporting.
  Task       77 on host nid005085 reporting.
  Task       78 on host nid005085 reporting.
  Task       79 on host nid005085 reporting.
  Task       80 on host nid005085 reporting.
  Task       81 on host nid005085 reporting.
  Task       82 on host nid005085 reporting.
  Task       83 on host nid005085 reporting.
  Task       84 on host nid005085 reporting.
  Task       85 on host nid005085 reporting.
  Task       86 on host nid005085 reporting.
  Task       87 on host nid005085 reporting.
  Task       88 on host nid005085 reporting.
  Task       89 on host nid005085 reporting.
  Task       90 on host nid005085 reporting.
  Task       91 on host nid005085 reporting.
  Task       92 on host nid005085 reporting.
  Task       93 on host nid005085 reporting.
  Task       94 on host nid005085 reporting.
  Task       95 on host nid005085 reporting.
  Task       96 on host nid005085 reporting.
  Task       97 on host nid005085 reporting.
  Task       98 on host nid005085 reporting.
  Task       99 on host nid005085 reporting.
  Task      100 on host nid005085 reporting.
  Task      101 on host nid005085 reporting.
  Task      102 on host nid005085 reporting.
  Task      103 on host nid005085 reporting.
  Task      104 on host nid005085 reporting.
  Task      105 on host nid005085 reporting.
  Task      106 on host nid005085 reporting.
  Task      107 on host nid005085 reporting.
  Task      108 on host nid005086 reporting.
  Task      109 on host nid005086 reporting.
  Task      110 on host nid005086 reporting.
  Task      111 on host nid005086 reporting.
  Task      112 on host nid005086 reporting.
  Task      113 on host nid005086 reporting.
  Task      114 on host nid005086 reporting.
  Task      115 on host nid005086 reporting.
  Task      116 on host nid005086 reporting.
  Task      117 on host nid005086 reporting.
  Task      118 on host nid005086 reporting.
  Task      119 on host nid005086 reporting.
  Task      120 on host nid005086 reporting.
  Task      121 on host nid005086 reporting.
  Task      122 on host nid005086 reporting.
  Task      123 on host nid005086 reporting.
  Task      124 on host nid005086 reporting.
  Task      125 on host nid005086 reporting.
  Task      126 on host nid005086 reporting.
  Task      127 on host nid005086 reporting.
  Task      128 on host nid005086 reporting.
  Task      129 on host nid005086 reporting.
  Task      130 on host nid005086 reporting.
  Task      131 on host nid005086 reporting.
  Task      132 on host nid005086 reporting.
  Task      133 on host nid005086 reporting.
  Task      134 on host nid005086 reporting.
  Task      135 on host nid005086 reporting.
  Task      136 on host nid005086 reporting.
  Task      137 on host nid005086 reporting.
  Task      138 on host nid005086 reporting.
  Task      139 on host nid005086 reporting.
  Task      140 on host nid005086 reporting.
  Task      141 on host nid005086 reporting.
  Task      142 on host nid005086 reporting.
  Task      143 on host nid005086 reporting.
  Task      144 on host nid005186 reporting.
  Task      145 on host nid005186 reporting.
  Task      146 on host nid005186 reporting.
  Task      147 on host nid005186 reporting.
  Task      148 on host nid005186 reporting.
  Task      149 on host nid005186 reporting.
  Task      150 on host nid005186 reporting.
  Task      151 on host nid005186 reporting.
  Task      152 on host nid005186 reporting.
  Task      153 on host nid005186 reporting.
  Task      154 on host nid005186 reporting.
  Task      155 on host nid005186 reporting.
  Task      156 on host nid005186 reporting.
  Task      157 on host nid005186 reporting.
  Task      158 on host nid005186 reporting.
  Task      159 on host nid005186 reporting.
  Task      160 on host nid005186 reporting.
  Task      161 on host nid005186 reporting.
  Task      162 on host nid005186 reporting.
  Task      163 on host nid005186 reporting.
  Task      164 on host nid005186 reporting.
  Task      165 on host nid005186 reporting.
  Task      166 on host nid005186 reporting.
  Task      167 on host nid005186 reporting.
  Task      168 on host nid005186 reporting.
  Task      169 on host nid005186 reporting.
  Task      170 on host nid005186 reporting.
  Task      171 on host nid005186 reporting.
  Task      172 on host nid005186 reporting.
  Task      173 on host nid005186 reporting.
  Task      174 on host nid005186 reporting.
  Task      175 on host nid005186 reporting.
  Task      176 on host nid005186 reporting.
  Task      177 on host nid005186 reporting.
  Task      178 on host nid005186 reporting.
  Task      179 on host nid005186 reporting.
  Task      180 on host nid005187 reporting.
  Task      181 on host nid005187 reporting.
  Task      182 on host nid005187 reporting.
  Task      183 on host nid005187 reporting.
  Task      184 on host nid005187 reporting.
  Task      185 on host nid005187 reporting.
  Task      186 on host nid005187 reporting.
  Task      187 on host nid005187 reporting.
  Task      188 on host nid005187 reporting.
  Task      189 on host nid005187 reporting.
  Task      190 on host nid005187 reporting.
  Task      191 on host nid005187 reporting.
  Task      192 on host nid005187 reporting.
  Task      193 on host nid005187 reporting.
  Task      194 on host nid005187 reporting.
  Task      195 on host nid005187 reporting.
  Task      196 on host nid005187 reporting.
  Task      197 on host nid005187 reporting.
  Task      198 on host nid005187 reporting.
  Task      199 on host nid005187 reporting.
  Task      200 on host nid005187 reporting.
  Task      201 on host nid005187 reporting.
  Task      202 on host nid005187 reporting.
  Task      203 on host nid005187 reporting.
  Task      204 on host nid005187 reporting.
  Task      205 on host nid005187 reporting.
  Task      206 on host nid005187 reporting.
  Task      207 on host nid005187 reporting.
  Task      208 on host nid005187 reporting.
  Task      209 on host nid005187 reporting.
  Task      210 on host nid005187 reporting.
  Task      211 on host nid005187 reporting.
  Task      212 on host nid005187 reporting.
  Task      213 on host nid005187 reporting.
  Task      214 on host nid005187 reporting.
  Task      215 on host nid005187 reporting.
  Task      216 on host nid005188 reporting.
  Task      217 on host nid005188 reporting.
  Task      218 on host nid005188 reporting.
  Task      219 on host nid005188 reporting.
  Task      220 on host nid005188 reporting.
  Task      221 on host nid005188 reporting.
  Task      222 on host nid005188 reporting.
  Task      223 on host nid005188 reporting.
  Task      224 on host nid005188 reporting.
  Task      225 on host nid005188 reporting.
  Task      226 on host nid005188 reporting.
  Task      227 on host nid005188 reporting.
  Task      228 on host nid005188 reporting.
  Task      229 on host nid005188 reporting.
  Task      230 on host nid005188 reporting.
  Task      231 on host nid005188 reporting.
  Task      232 on host nid005188 reporting.
  Task      233 on host nid005188 reporting.
  Task      234 on host nid005188 reporting.
  Task      235 on host nid005188 reporting.
  Task      236 on host nid005188 reporting.
  Task      237 on host nid005188 reporting.
  Task      238 on host nid005188 reporting.
  Task      239 on host nid005188 reporting.
  Task      240 on host nid005188 reporting.
  Task      241 on host nid005188 reporting.
  Task      242 on host nid005188 reporting.
  Task      243 on host nid005188 reporting.
  Task      244 on host nid005188 reporting.
  Task      245 on host nid005188 reporting.
  Task      246 on host nid005188 reporting.
  Task      247 on host nid005188 reporting.
  Task      248 on host nid005188 reporting.
  Task      249 on host nid005188 reporting.
  Task      250 on host nid005188 reporting.
  Task      251 on host nid005188 reporting.
  Task      252 on host nid005189 reporting.
  Task      253 on host nid005189 reporting.
  Task      254 on host nid005189 reporting.
  Task      255 on host nid005189 reporting.
  Task      256 on host nid005189 reporting.
  Task      257 on host nid005189 reporting.
  Task      258 on host nid005189 reporting.
  Task      259 on host nid005189 reporting.
  Task      260 on host nid005189 reporting.
  Task      261 on host nid005189 reporting.
  Task      262 on host nid005189 reporting.
  Task      263 on host nid005189 reporting.
  Task      264 on host nid005189 reporting.
  Task      265 on host nid005189 reporting.
  Task      266 on host nid005189 reporting.
  Task      267 on host nid005189 reporting.
  Task      268 on host nid005189 reporting.
  Task      269 on host nid005189 reporting.
  Task      270 on host nid005189 reporting.
  Task      271 on host nid005189 reporting.
  Task      272 on host nid005189 reporting.
  Task      273 on host nid005189 reporting.
  Task      274 on host nid005189 reporting.
  Task      275 on host nid005189 reporting.
  Task      276 on host nid005189 reporting.
  Task      277 on host nid005189 reporting.
  Task      278 on host nid005189 reporting.
  Task      279 on host nid005189 reporting.
  Task      280 on host nid005189 reporting.
  Task      281 on host nid005189 reporting.
  Task      282 on host nid005189 reporting.
  Task      283 on host nid005189 reporting.
  Task      284 on host nid005189 reporting.
  Task      285 on host nid005189 reporting.
  Task      286 on host nid005189 reporting.
  Task      287 on host nid005189 reporting.
  Task      288 on host nid005216 reporting.
  Task      289 on host nid005216 reporting.
  Task      290 on host nid005216 reporting.
  Task      291 on host nid005216 reporting.
  Task      292 on host nid005216 reporting.
  Task      293 on host nid005216 reporting.
  Task      294 on host nid005216 reporting.
  Task      295 on host nid005216 reporting.
  Task      296 on host nid005216 reporting.
  Task      297 on host nid005216 reporting.
  Task      298 on host nid005216 reporting.
  Task      299 on host nid005216 reporting.
  Task      300 on host nid005216 reporting.
  Task      301 on host nid005216 reporting.
  Task      302 on host nid005216 reporting.
  Task      303 on host nid005216 reporting.
  Task      304 on host nid005216 reporting.
  Task      305 on host nid005216 reporting.
  Task      306 on host nid005216 reporting.
  Task      307 on host nid005216 reporting.
  Task      308 on host nid005216 reporting.
  Task      309 on host nid005216 reporting.
  Task      310 on host nid005216 reporting.
  Task      311 on host nid005216 reporting.
  Task      312 on host nid005216 reporting.
  Task      313 on host nid005216 reporting.
  Task      314 on host nid005216 reporting.
  Task      315 on host nid005216 reporting.
  Task      316 on host nid005216 reporting.
  Task      317 on host nid005216 reporting.
  Task      318 on host nid005216 reporting.
  Task      319 on host nid005216 reporting.
  Task      320 on host nid005216 reporting.
  Task      321 on host nid005216 reporting.
  Task      322 on host nid005216 reporting.
  Task      323 on host nid005216 reporting.
  Task      324 on host nid005220 reporting.
  Task      325 on host nid005220 reporting.
  Task      326 on host nid005220 reporting.
  Task      327 on host nid005220 reporting.
  Task      328 on host nid005220 reporting.
  Task      329 on host nid005220 reporting.
  Task      330 on host nid005220 reporting.
  Task      331 on host nid005220 reporting.
  Task      332 on host nid005220 reporting.
  Task      333 on host nid005220 reporting.
  Task      334 on host nid005220 reporting.
  Task      335 on host nid005220 reporting.
  Task      336 on host nid005220 reporting.
  Task      337 on host nid005220 reporting.
  Task      338 on host nid005220 reporting.
  Task      339 on host nid005220 reporting.
  Task      340 on host nid005220 reporting.
  Task      341 on host nid005220 reporting.
  Task      342 on host nid005220 reporting.
  Task      343 on host nid005220 reporting.
  Task      344 on host nid005220 reporting.
  Task      345 on host nid005220 reporting.
  Task      346 on host nid005220 reporting.
  Task      347 on host nid005220 reporting.
  Task      348 on host nid005220 reporting.
  Task      349 on host nid005220 reporting.
  Task      350 on host nid005220 reporting.
  Task      351 on host nid005220 reporting.
  Task      352 on host nid005220 reporting.
  Task      353 on host nid005220 reporting.
  Task      354 on host nid005220 reporting.
  Task      355 on host nid005220 reporting.
  Task      356 on host nid005220 reporting.
  Task      357 on host nid005220 reporting.
  Task      358 on host nid005220 reporting.
  Task      359 on host nid005220 reporting.
  Task      360 on host nid005380 reporting.
  Task      361 on host nid005380 reporting.
  Task      362 on host nid005380 reporting.
  Task      363 on host nid005380 reporting.
  Task      364 on host nid005380 reporting.
  Task      365 on host nid005380 reporting.
  Task      366 on host nid005380 reporting.
  Task      367 on host nid005380 reporting.
  Task      368 on host nid005380 reporting.
  Task      369 on host nid005380 reporting.
  Task      370 on host nid005380 reporting.
  Task      371 on host nid005380 reporting.
  Task      372 on host nid005380 reporting.
  Task      373 on host nid005380 reporting.
  Task      374 on host nid005380 reporting.
  Task      375 on host nid005380 reporting.
  Task      376 on host nid005380 reporting.
  Task      377 on host nid005380 reporting.
  Task      378 on host nid005380 reporting.
  Task      379 on host nid005380 reporting.
  Task      380 on host nid005380 reporting.
  Task      381 on host nid005380 reporting.
  Task      382 on host nid005380 reporting.
  Task      383 on host nid005380 reporting.
  Task      384 on host nid005380 reporting.
  Task      385 on host nid005380 reporting.
  Task      386 on host nid005380 reporting.
  Task      387 on host nid005380 reporting.
  Task      388 on host nid005380 reporting.
  Task      389 on host nid005380 reporting.
  Task      390 on host nid005380 reporting.
  Task      391 on host nid005380 reporting.
  Task      392 on host nid005380 reporting.
  Task      393 on host nid005380 reporting.
  Task      394 on host nid005380 reporting.
  Task      395 on host nid005380 reporting.
  Task      396 on host nid005429 reporting.
  Task      397 on host nid005429 reporting.
  Task      398 on host nid005429 reporting.
  Task      399 on host nid005429 reporting.
  Task      400 on host nid005429 reporting.
  Task      401 on host nid005429 reporting.
  Task      402 on host nid005429 reporting.
  Task      403 on host nid005429 reporting.
  Task      404 on host nid005429 reporting.
  Task      405 on host nid005429 reporting.
  Task      406 on host nid005429 reporting.
  Task      407 on host nid005429 reporting.
  Task      408 on host nid005429 reporting.
  Task      409 on host nid005429 reporting.
  Task      410 on host nid005429 reporting.
  Task      411 on host nid005429 reporting.
  Task      412 on host nid005429 reporting.
  Task      413 on host nid005429 reporting.
  Task      414 on host nid005429 reporting.
  Task      415 on host nid005429 reporting.
  Task      416 on host nid005429 reporting.
  Task      417 on host nid005429 reporting.
  Task      418 on host nid005429 reporting.
  Task      419 on host nid005429 reporting.
  Task      420 on host nid005429 reporting.
  Task      421 on host nid005429 reporting.
  Task      422 on host nid005429 reporting.
  Task      423 on host nid005429 reporting.
  Task      424 on host nid005429 reporting.
  Task      425 on host nid005429 reporting.
  Task      426 on host nid005429 reporting.
  Task      427 on host nid005429 reporting.
  Task      428 on host nid005429 reporting.
  Task      429 on host nid005429 reporting.
  Task      430 on host nid005429 reporting.
  Task      431 on host nid005429 reporting.
  Task      432 on host nid005430 reporting.
  Task      433 on host nid005430 reporting.
  Task      434 on host nid005430 reporting.
  Task      435 on host nid005430 reporting.
  Task      436 on host nid005430 reporting.
  Task      437 on host nid005430 reporting.
  Task      438 on host nid005430 reporting.
  Task      439 on host nid005430 reporting.
  Task      440 on host nid005430 reporting.
  Task      441 on host nid005430 reporting.
  Task      442 on host nid005430 reporting.
  Task      443 on host nid005430 reporting.
  Task      444 on host nid005430 reporting.
  Task      445 on host nid005430 reporting.
  Task      446 on host nid005430 reporting.
  Task      447 on host nid005430 reporting.
  Task      448 on host nid005430 reporting.
  Task      449 on host nid005430 reporting.
  Task      450 on host nid005430 reporting.
  Task      451 on host nid005430 reporting.
  Task      452 on host nid005430 reporting.
  Task      453 on host nid005430 reporting.
  Task      454 on host nid005430 reporting.
  Task      455 on host nid005430 reporting.
  Task      456 on host nid005430 reporting.
  Task      457 on host nid005430 reporting.
  Task      458 on host nid005430 reporting.
  Task      459 on host nid005430 reporting.
  Task      460 on host nid005430 reporting.
  Task      461 on host nid005430 reporting.
  Task      462 on host nid005430 reporting.
  Task      463 on host nid005430 reporting.
  Task      464 on host nid005430 reporting.
  Task      465 on host nid005430 reporting.
  Task      466 on host nid005430 reporting.
  Task      467 on host nid005430 reporting.
  Task      468 on host nid005431 reporting.
  Task      469 on host nid005431 reporting.
  Task      470 on host nid005431 reporting.
  Task      471 on host nid005431 reporting.
  Task      472 on host nid005431 reporting.
  Task      473 on host nid005431 reporting.
  Task      474 on host nid005431 reporting.
  Task      475 on host nid005431 reporting.
  Task      476 on host nid005431 reporting.
  Task      477 on host nid005431 reporting.
  Task      478 on host nid005431 reporting.
  Task      479 on host nid005431 reporting.
  Task      480 on host nid005431 reporting.
  Task      481 on host nid005431 reporting.
  Task      482 on host nid005431 reporting.
  Task      483 on host nid005431 reporting.
  Task      484 on host nid005431 reporting.
  Task      485 on host nid005431 reporting.
  Task      486 on host nid005431 reporting.
  Task      487 on host nid005431 reporting.
  Task      488 on host nid005431 reporting.
  Task      489 on host nid005431 reporting.
  Task      490 on host nid005431 reporting.
  Task      491 on host nid005431 reporting.
  Task      492 on host nid005431 reporting.
  Task      493 on host nid005431 reporting.
  Task      494 on host nid005431 reporting.
  Task      495 on host nid005431 reporting.
  Task      496 on host nid005431 reporting.
  Task      497 on host nid005431 reporting.
  Task      498 on host nid005431 reporting.
  Task      499 on host nid005431 reporting.
  Task      500 on host nid005431 reporting.
  Task      501 on host nid005431 reporting.
  Task      502 on host nid005431 reporting.
  Task      503 on host nid005431 reporting.
  Task      504 on host nid005461 reporting.
  Task      505 on host nid005461 reporting.
  Task      506 on host nid005461 reporting.
  Task      507 on host nid005461 reporting.
  Task      508 on host nid005461 reporting.
  Task      509 on host nid005461 reporting.
  Task      510 on host nid005461 reporting.
  Task      511 on host nid005461 reporting.
  Task      512 on host nid005461 reporting.
  Task      513 on host nid005461 reporting.
  Task      514 on host nid005461 reporting.
  Task      515 on host nid005461 reporting.
  Task      516 on host nid005461 reporting.
  Task      517 on host nid005461 reporting.
  Task      518 on host nid005461 reporting.
  Task      519 on host nid005461 reporting.
  Task      520 on host nid005461 reporting.
  Task      521 on host nid005461 reporting.
  Task      522 on host nid005461 reporting.
  Task      523 on host nid005461 reporting.
  Task      524 on host nid005461 reporting.
  Task      525 on host nid005461 reporting.
  Task      526 on host nid005461 reporting.
  Task      527 on host nid005461 reporting.
  Task      528 on host nid005461 reporting.
  Task      529 on host nid005461 reporting.
  Task      530 on host nid005461 reporting.
  Task      531 on host nid005461 reporting.
  Task      532 on host nid005461 reporting.
  Task      533 on host nid005461 reporting.
  Task      534 on host nid005461 reporting.
  Task      535 on host nid005461 reporting.
  Task      536 on host nid005461 reporting.
  Task      537 on host nid005461 reporting.
  Task      538 on host nid005461 reporting.
  Task      539 on host nid005461 reporting.
  Task      540 on host nid005468 reporting.
  Task      541 on host nid005468 reporting.
  Task      542 on host nid005468 reporting.
  Task      543 on host nid005468 reporting.
  Task      544 on host nid005468 reporting.
  Task      545 on host nid005468 reporting.
  Task      546 on host nid005468 reporting.
  Task      547 on host nid005468 reporting.
  Task      548 on host nid005468 reporting.
  Task      549 on host nid005468 reporting.
  Task      550 on host nid005468 reporting.
  Task      551 on host nid005468 reporting.
  Task      552 on host nid005468 reporting.
  Task      553 on host nid005468 reporting.
  Task      554 on host nid005468 reporting.
  Task      555 on host nid005468 reporting.
  Task      556 on host nid005468 reporting.
  Task      557 on host nid005468 reporting.
  Task      558 on host nid005468 reporting.
  Task      559 on host nid005468 reporting.
  Task      560 on host nid005468 reporting.
  Task      561 on host nid005468 reporting.
  Task      562 on host nid005468 reporting.
  Task      563 on host nid005468 reporting.
  Task      564 on host nid005468 reporting.
  Task      565 on host nid005468 reporting.
  Task      566 on host nid005468 reporting.
  Task      567 on host nid005468 reporting.
  Task      568 on host nid005468 reporting.
  Task      569 on host nid005468 reporting.
  Task      570 on host nid005468 reporting.
  Task      571 on host nid005468 reporting.
  Task      572 on host nid005468 reporting.
  Task      573 on host nid005468 reporting.
  Task      574 on host nid005468 reporting.
  Task      575 on host nid005468 reporting.

  Performing system and environment tests:
  | Environment variable OMP_NUM_THREADS correctly set to 1.
  | Checking for ScaLAPACK...
  | Testing pdtran()...
  | All pdtran() tests passed.

  Obtaining array dimensions for all initial allocations:
  
  -----------------------------------------------------------------------
  Parsing control.in (first pass over file, find array dimensions only).
  The contents of control.in will be repeated verbatim below
  unless switched off by setting 'verbatim_writeout .false.' .
  in the first line of control.in .
  -----------------------------------------------------------------------
  
  xc               pbesol
  charge           0.
  spin             none
  relativistic atomic_zora scalar
  k_grid                6 6 4
  sc_accuracy_rho       1E-7
  sc_accuracy_forces    1E-6
  
  ################################################################################
  #
  #  FHI-aims code project
  #  Volker Blum, Fritz Haber Institute Berlin, 2009
  #
  #  Suggested "tight" defaults for Ba atom (to be pasted into control.in file)
  #
  #  The onset of the cutoff pot'l WAS set to 8 A by default, because the neutral
  #  Ba atom is a large atom. However, this is very expensive. The radius should be
  #  much smaller in real-world situations, where Ba will be ionic. Please check
  #  and reduce the cutoff radius explicitly.
  #
  #  2015/11/12 : f and g functions from tier2 added to default basis set choice.
  #               These functions make a difference in the "delta test".
  #               Reduced the default cutoff radius to 6AA. The free-atom 6s function
  #               requires more. However, 6AA is already VERY expensive for
  #               any production calculations. In fact, revisit this choice for
  #               ionic systems to see if a smaller cutoff radius will do.
  #
  ################################################################################
    species          Ba
  #     global species definitions
      nucleus        56
      mass           137.327
  #
      l_hartree      6
  #
      cut_pot        6.0  2.0  1.0
      basis_dep_cutoff    1e-4
  #
      radial_base    65  7.0
      radial_multiplier  2
      angular_grids specified
        division   0.6752  110
        division   0.9746  194
        division   1.2241  302
        division   1.3850  434
  #      division   1.4734  590
  #      division   1.6010  770
  #      division   4.8366  974
  #      outer_grid  974
        outer_grid  434
  ################################################################################
  #
  #  Definition of "minimal" basis
  #
  ################################################################################
  #     valence basis states
      valence      6  s   2.
      valence      5  p   6.
      valence      4  d  10.
  #     ion occupancy
      ion_occ      6  s   1.
      ion_occ      5  p   6.
      ion_occ      4  d  10.
  ################################################################################
  #
  #  Suggested additional basis functions. For production calculations,
  #  uncomment them one after another (the most important basis functions are
  #  listed first).
  #
  #  Constructed for dimers: 2.65, 3.00, 3.50, 4.40, 5.50 Ang
  #
  ################################################################################
  #  "First tier" - improvements: -1277.43 meV to -9.16 meV
       ionic 5 d auto
       ionic 4 f auto
       hydro 3 p 2.7
       hydro 4 s 3.3
  #  "Second tier" - improvements: -64.04 (!) meV to -0.25 meV
       hydro 4 f 5.8
       hydro 5 g 7.4
  #     hydro 4 d 4.5
  #     hydro 6 h 11.2
  #     hydro 5 p 6.6
  #     hydro 2 s 3.2
  #  "Third tier" - max. impr. -1.16 meV, min. impr. -0.08 meV
  #     hydro 5 f 7.4
  #     hydro 5 g 10.8
  #     hydro 4 d 2.3
  #     hydro 4 p 3.7
  #     hydro 5 s 4.0
  #  Further functions - impr. -0.35 meV and below
  #     hydro 5 d 3.5
  #     hydro 6 d 0.4
  #     hydro 2 p 2.5
  #     hydro 5 f 12
  #     hydro 6 d 8.8
  ################################################################################
  #
  #  FHI-aims code project
  #  Volker Blum, Fritz Haber Institute Berlin, 2009
  #
  #  Suggested "tight" defaults for Zr atom (to be pasted into control.in file)
  #
  ################################################################################
    species          Zr
  #     global species definitions
      nucleus        40
      mass           91.224
  #
      l_hartree      6
  #
      cut_pot        4.0  2.0  1.0
      basis_dep_cutoff    1e-4
  #
      radial_base    58  7.0
      radial_multiplier  2
      angular_grids specified
        division   0.3653   50
        division   0.8035  110
        division   1.2273  194
        division   1.4586  302
        division   1.6764  434
  #      division   1.9671  590
  #      division   2.1961  770
  #      division   2.3240  974
  #      division   3.4772 1202
  #      outer_grid  974
        outer_grid  434
  ################################################################################
  #
  #  Definition of "minimal" basis
  #
  ################################################################################
  #     valence basis states
      valence      5  s   2.
      valence      4  p   6.
      valence      4  d   2.
  #     ion occupancy
      ion_occ      5  s   1.
      ion_occ      4  p   6.
      ion_occ      4  d   1.
  ################################################################################
  #
  #  Suggested additional basis functions. For production calculations,
  #  uncomment them one after another (the most important basis functions are
  #  listed first).
  #
  #  Constructed for dimers: 1.9, 2.25, 3.00, 4.00 Ang
  #
  ################################################################################
  #  "First tier" - improvements: -605.96 meV to -18.06 meV
       hydro 4 f 7.2
       ionic 4 d auto
       ionic 5 p auto
       hydro 5 g 10.4
       ionic 5 s auto
  #  "Second tier" - improvements: -32.47 meV to -1.41 meV
  #     hydro 4 f 10.4
  #     hydro 6 h 14.8
  #     hydro 4 d 6.2
  #     hydro 4 p 4.4
  #     hydro 4 f 20
  #     hydro 5 s 6
  #  "Third tier" - improvements: -1.99 meV and lower.
  #     hydro 4 f 5.8
  #     hydro 5 g 10.8
  #     hydro 2 p 1
  #     hydro 3 d 8
  #     hydro 6 h 14.4
  #     hydro 1 s 0.9
  #  Further functions (approx -0.40 meV and below possible)
  ################################################################################
  #
  #  FHI-aims code project
  #  Volker Blum, Fritz Haber Institute Berlin, 2009
  #
  #  Suggested "tight" defaults for S atom (to be pasted into control.in file)
  #
  #  Revised Jan 04, 2011, following tests (SiC) done by Lydia Nemec:
  #     d and g functions of tier 2 now enabled by default.
  #
  ################################################################################
    species        S
  #     global species definitions
      nucleus             16
      mass                32.065
  #
      l_hartree           6
  #
      cut_pot             4.0          2.0  1.0
      basis_dep_cutoff    1e-4
  #
      radial_base         44 7.0
      radial_multiplier   2
      angular_grids       specified
        division   0.4665  110
        division   0.5810  194
        division   0.7139  302
        division   0.8274  434
  #      division   0.9105  590
  #      division   1.0975  770
  #      division   1.2028  974
  #      outer_grid  974
        outer_grid  434
  ################################################################################
  #
  #  Definition of "minimal" basis
  #
  ################################################################################
  #     valence basis states
      valence      3  s   2.
      valence      3  p   4.
  #     ion occupancy
      ion_occ      3  s   1.
      ion_occ      3  p   3.
  ################################################################################
  #
  #  Suggested additional basis functions. For production calculations,
  #  uncomment them one after another (the most important basis functions are
  #  listed first).
  #
  #  Constructed for dimers: 1.6 A, 1.9 A, 2.5 A, 3.25 A, 4.0 A
  #
  ################################################################################
  #  "First tier" - improvements: -652.81 meV to -45.53 meV
       ionic 3 d auto
       hydro 2 p 1.8
       hydro 4 f 7
       ionic 3 s auto
  #  "Second tier" - improvements: -30.20 meV to -1.74 meV
       hydro 4 d 6.2
       hydro 5 g 10.8
  #     hydro 4 p 4.9
  #     hydro 5 f 10
  #     hydro 1 s 0.8
  #  "Third tier" - improvements: -1.04 meV to -0.20 meV
  #     hydro 3 d 3.9
  #     hydro 3 d 2.7
  #     hydro 5 g 12
  #     hydro 4 p 10.4
  #     hydro 5 f 12.4
  #     hydro 2 s 1.9
  #  "Fourth tier" - improvements: -0.35 meV to -0.06 meV
  #     hydro 4 d 10.4
  #     hydro 4 p 7.2
  #     hydro 4 d 10
  #     hydro 5 g 19.2
  #     hydro 4 s 12
  
  ################################################################################
  #
  # For methods that use the localized form of the "resolution of identity" for
  # the two-electron Coulomb operator (RI_method LVL), particularly Hartree-Fock and
  # hybrid density functional calculations, the highest accuracy can be obtained by
  # uncommenting the line beginning with "for_aux"  below, thus adding an extra g radial
  # function to the construction of the product basis set for the expansion.
  # See Ref. New J. Phys. 17, 093020 (2015) for more information, particularly Figs. 1 and 6.
  #
  ################################################################################
  #
  # for_aux hydro 5 g 6.0
  
  -----------------------------------------------------------------------
  Completed first pass over input file control.in .
  -----------------------------------------------------------------------
  
  
  -----------------------------------------------------------------------
  Parsing geometry.in (first pass over file, find array dimensions only).
  The contents of geometry.in will be repeated verbatim below
  unless switched off by setting 'verbatim_writeout .false.' .
  in the first line of geometry.in .
  -----------------------------------------------------------------------
  
  # geometry.in for FHI-aims
  # | generated by phonopy.FHIaims.write_aims()
  lattice_vector -4.9621042600000003 4.9621042600000003 35.2495096399999994
  lattice_vector 4.9621042600000003 -4.9621042600000003 35.2495096399999994
  lattice_vector 2.4810521300000001 2.4810521300000001 -17.6247548199999997
  atom -0.0000000000000001 0.0000000000000001 15.2474387086190131 Ba
  atom -2.4810521300000010 2.4810521300000010 32.8721935286190146 Ba
  atom 2.4810521300000001 -2.4810521300000001 32.8721935286190146 Ba
  atom -0.0000000000000002 0.0000000000000002 50.4969483486190143 Ba
  atom -0.0000000000000000 0.0000000000000000 20.0020709313809881 Ba
  atom -2.4810521300000006 2.4810521300000006 37.6268257513809914 Ba
  atom 2.4810521300000006 -2.4810521300000006 37.6268257513809914 Ba
  atom -0.0000000000000002 0.0000000000000002 55.2515805713809911 Ba
  atom -0.0000000000000000 0.0000000000000000 10.5930324741017330 Ba
  atom -2.4810521300000001 2.4810521300000001 28.2177872941017327 Ba
  atom 2.4810521300000001 -2.4810521300000001 28.2177872941017327 Ba
  atom 0.0000000000000001 -0.0000000000000001 45.8425421141017324 Ba
  atom -0.0000000000000003 0.0000000000000003 24.6564771658982700 Ba
  atom -2.4810521299999997 2.4810521299999997 42.2812319858982733 Ba
  atom 2.4810521300000001 -2.4810521300000001 42.2812319858982733 Ba
  atom 0.0000000000000010 -0.0000000000000010 59.9059868058982730 Ba
  atom 0.0000000000000000 2.4810521300000001 0.0000000000000000 S
  atom -2.4810521300000001 4.9621042600000003 17.6247548199999997 S
  atom 2.4810521300000001 0.0000000000000000 17.6247548199999997 S
  atom 0.0000000000000000 2.4810521300000001 35.2495096399999994 S
  atom 0.0000000000000000 2.4810521300000001 17.6247548199999997 S
  atom 2.4810521300000001 0.0000000000000000 0.0000000000000000 S
  atom 2.4810521300000001 0.0000000000000000 35.2495096399999994 S
  atom 4.9621042600000003 -2.4810521300000001 17.6247548199999997 S
  atom -0.0000000000000002 0.0000000000000002 32.7582699334232998 S
  atom -2.4810521300000001 2.4810521300000001 50.3830247534232925 S
  atom 2.4810521300000001 -2.4810521300000001 50.3830247534232996 S
  atom 0.0000000000000002 -0.0000000000000002 68.0077795734232922 S
  atom 0.0000000000000000 -0.0000000000000000 2.4912397065766978 S
  atom -2.4810521300000001 2.4810521300000001 20.1159945265766993 S
  atom 2.4810521300000001 -2.4810521300000001 20.1159945265766993 S
  atom 0.0000000000000002 -0.0000000000000002 37.7407493465766990 S
  atom 0.0000000000000001 -0.0000000000000001 27.7148638578277442 S
  atom -2.4810521300000001 2.4810521300000001 45.3396186778277439 S
  atom 2.4810521300000006 -2.4810521300000006 45.3396186778277439 S
  atom 0.0000000000000009 -0.0000000000000009 62.9643734978277507 S
  atom 0.0000000000000000 -0.0000000000000000 7.5346457821722552 S
  atom -2.4810521299999997 2.4810521299999997 25.1594006021722514 S
  atom 2.4810521300000001 -2.4810521300000001 25.1594006021722514 S
  atom 0.0000000000000001 -0.0000000000000001 42.7841554221722475 S
  atom -0.0013806156836174 2.4824327456836173 12.7081189565041761 S
  atom -2.4810521300000001 4.9621042600000003 30.3426813144555858 S
  atom 2.4810521300000001 0.0000000000000002 30.3426813144555858 S
  atom -0.0000000000000008 2.4810521300000006 47.9674361344555891 S
  atom 2.4810521300000001 0.0000000000000000 12.7179264944555861 S
  atom -0.0000000000000004 2.4810521300000001 30.3426813144555858 S
  atom 4.9621042600000003 -2.4810521300000001 30.3426813144555858 S
  atom 2.4810521300000001 0.0000000000000002 47.9674361344555820 S
  atom 2.4810521300000001 0.0000000000000000 4.9068283255444136 S
  atom 0.0000000000000005 2.4810521300000001 22.5315831455444062 S
  atom 4.9621042600000003 -2.4810521300000001 22.5315831455444133 S
  atom 2.4810521300000006 -0.0000000000000008 40.1563379655444095 S
  atom 0.0000000000000000 2.4810521300000001 4.9068283255444136 S
  atom -2.4810521300000001 4.9621042600000003 22.5315831455444133 S
  atom 2.4810521300000001 0.0000000000000000 22.5315831455444133 S
  atom 0.0000000000000005 2.4810521300000001 40.1563379655444095 S
  atom 0.0000000000000000 0.0000000000000000 0.0000000000000000 Zr
  atom -2.4810521300000001 2.4810521300000001 17.6247548199999997 Zr
  atom 2.4810521300000001 -2.4810521300000001 17.6247548199999997 Zr
  atom 0.0000000000000000 0.0000000000000000 35.2495096399999994 Zr
  atom 0.0000000000000002 -0.0000000000000002 30.1957870904181007 Zr
  atom -2.4810521300000010 2.4810521300000010 47.8205419104181075 Zr
  atom 2.4810521300000006 -2.4810521300000006 47.8205419104181004 Zr
  atom -0.0000000000000000 0.0000000000000000 65.4452967304181072 Zr
  atom -0.0000000000000000 0.0000000000000000 5.0537225495818960 Zr
  atom -2.4810521300000001 2.4810521300000001 22.6784773695818949 Zr
  atom 2.4810521300000001 -2.4810521300000001 22.6784773695818949 Zr
  atom 0.0000000000000000 -0.0000000000000000 40.3032321895818910 Zr
  
  -----------------------------------------------------------------------
  Completed first pass over input file geometry.in .
  -----------------------------------------------------------------------
  

  Basic array size parameters:
  | Number of species                 :        3
  | Number of atoms                   :       68
  | Number of lattice vectors         :        3
  | Max. basis fn. angular momentum   :        4
  | Max. atomic/ionic basis occupied n:        6
  | Max. number of basis fn. types    :        3
  | Max. radial fns per species/type  :       12
  | Max. logarithmic grid size        :     1460
  | Max. radial integration grid size :      131
  | Max. angular integration grid size:      434
  | Max. angular grid division number :        8
  | Radial grid for Hartree potential :     1460
  | Number of spin channels           :        1

------------------------------------------------------------
          Reading file control.in.
------------------------------------------------------------
  XC: Using PBEsol gradient-corrected functionals.
  Charge =   0.000000E+00: Neutral system requested explicitly.
  Spin treatment: No spin polarisation.
  Scalar relativistic treatment of kinetic energy: on-site free-atom approximation to ZORA.
  Found k-point grid:         6         6         4
  Convergence accuracy of self-consistent charge density:  0.1000E-06
  Convergence accuracy of forces:  0.1000E-05

  Reading configuration options for species Ba                  .
  | Found nuclear charge :  56.0000
  | Found atomic mass :    137.32700000000000      amu
  | Found l_max for Hartree potential  :   6
  | Found cutoff potl. onset [A], width [A], scale factor :    6.00000    2.00000    1.00000
  | Threshold for basis-dependent cutoff potential is   0.100000E-03
  | Found data for basic radial integration grid :    65 points, outermost radius =    7.000 A
  | Found multiplier for basic radial grid :   2
  | Found angular grid specification: user-specified.
  | Specified grid contains     5 separate shells.
  | Check grid settings after all constraints further below.
  | Found free-atom valence shell :  6 s   2.000
  | Found free-atom valence shell :  5 p   6.000
  | Found free-atom valence shell :  4 d  10.000
  | Found free-ion valence shell :  6 s   1.000
  | Found free-ion valence shell :  5 p   6.000
  | Found free-ion valence shell :  4 d  10.000
  | Found ionic basis function :  5 d , default cutoff radius.
  | Found ionic basis function :  4 f , default cutoff radius.
  | Found hydrogenic basis function :  3 p   2.700
  | Found hydrogenic basis function :  4 s   3.300
  | Found hydrogenic basis function :  4 f   5.800
  | Found hydrogenic basis function :  5 g   7.400
  Species Ba                  : Missing cutoff potential type.
  Defaulting to exp(1/x)/(1-x)^2 type cutoff potential.
  Species Ba: No 'logarithmic' tag. Using default grid for free atom:
  | Default logarithmic grid data [bohr] : 0.1000E-03 0.1000E+03 0.1012E+01
  | Will include ionic basis functions of  1.0-fold positive Ba                   ion.
  Species Ba: On-site basis accuracy parameter (for Gram-Schmidt orthonormalisation) not specified.
  Using default value basis_acc =  0.1000000E-03.
  Species Ba                  : Using default innermost maximum threshold i_radial=  2 for radial functions.
  Species Ba                  : Default cutoff onset for free atom density etc. : 0.60000000E+01 AA.
  Species Ba                  : Basic radial grid will be enhanced according to radial_multiplier =   2, to contain   131 grid points.

  Reading configuration options for species Zr                  .
  | Found nuclear charge :  40.0000
  | Found atomic mass :    91.224000000000004      amu
  | Found l_max for Hartree potential  :   6
  | Found cutoff potl. onset [A], width [A], scale factor :    4.00000    2.00000    1.00000
  | Threshold for basis-dependent cutoff potential is   0.100000E-03
  | Found data for basic radial integration grid :    58 points, outermost radius =    7.000 A
  | Found multiplier for basic radial grid :   2
  | Found angular grid specification: user-specified.
  | Specified grid contains     6 separate shells.
  | Check grid settings after all constraints further below.
  | Found free-atom valence shell :  5 s   2.000
  | Found free-atom valence shell :  4 p   6.000
  | Found free-atom valence shell :  4 d   2.000
  | Found free-ion valence shell :  5 s   1.000
  | Found free-ion valence shell :  4 p   6.000
  | Found free-ion valence shell :  4 d   1.000
  | Found hydrogenic basis function :  4 f   7.200
  | Found ionic basis function :  4 d , default cutoff radius.
  | Found ionic basis function :  5 p , default cutoff radius.
  | Found hydrogenic basis function :  5 g  10.400
  | Found ionic basis function :  5 s , default cutoff radius.
  Species Zr                  : Missing cutoff potential type.
  Defaulting to exp(1/x)/(1-x)^2 type cutoff potential.
  Species Zr: No 'logarithmic' tag. Using default grid for free atom:
  | Default logarithmic grid data [bohr] : 0.1000E-03 0.1000E+03 0.1012E+01
  | Will include ionic basis functions of  2.0-fold positive Zr                   ion.
  Species Zr: On-site basis accuracy parameter (for Gram-Schmidt orthonormalisation) not specified.
  Using default value basis_acc =  0.1000000E-03.
  Species Zr                  : Using default innermost maximum threshold i_radial=  2 for radial functions.
  Species Zr                  : Default cutoff onset for free atom density etc. : 0.40000000E+01 AA.
  Species Zr                  : Basic radial grid will be enhanced according to radial_multiplier =   2, to contain   117 grid points.

  Reading configuration options for species S                   .
  | Found nuclear charge :  16.0000
  | Found atomic mass :    32.064999999999998      amu
  | Found l_max for Hartree potential  :   6
  | Found cutoff potl. onset [A], width [A], scale factor :    4.00000    2.00000    1.00000
  | Threshold for basis-dependent cutoff potential is   0.100000E-03
  | Found data for basic radial integration grid :    44 points, outermost radius =    7.000 A
  | Found multiplier for basic radial grid :   2
  | Found angular grid specification: user-specified.
  | Specified grid contains     5 separate shells.
  | Check grid settings after all constraints further below.
  | Found free-atom valence shell :  3 s   2.000
  | Found free-atom valence shell :  3 p   4.000
  | Found free-ion valence shell :  3 s   1.000
  | Found free-ion valence shell :  3 p   3.000
  | Found ionic basis function :  3 d , default cutoff radius.
  | Found hydrogenic basis function :  2 p   1.800
  | Found hydrogenic basis function :  4 f   7.000
  | Found ionic basis function :  3 s , default cutoff radius.
  | Found hydrogenic basis function :  4 d   6.200
  | Found hydrogenic basis function :  5 g  10.800
  Species S                   : Missing cutoff potential type.
  Defaulting to exp(1/x)/(1-x)^2 type cutoff potential.
  Species S : No 'logarithmic' tag. Using default grid for free atom:
  | Default logarithmic grid data [bohr] : 0.1000E-03 0.1000E+03 0.1012E+01
  | Will include ionic basis functions of  2.0-fold positive S                    ion.
  Species S : On-site basis accuracy parameter (for Gram-Schmidt orthonormalisation) not specified.
  Using default value basis_acc =  0.1000000E-03.
  Species S                   : Using default innermost maximum threshold i_radial=  2 for radial functions.
  Species S                   : Default cutoff onset for free atom density etc. : 0.40000000E+01 AA.
  Species S                   : Basic radial grid will be enhanced according to radial_multiplier =   2, to contain    89 grid points.

  Finished reading input file 'control.in'.

------------------------------------------------------------


------------------------------------------------------------
          Reading geometry description geometry.in.
------------------------------------------------------------
  | The smallest distance between any two atoms is         2.48092323 AA.
  | The first atom of this pair is atom number                     36 .
  | The second atom of this pair is atom number                    64 .
  | Wigner-Seitz cell of the first atom image           0     0     0 .
  | (The Wigner-Seitz cell of the second atom is 0 0 0  by definition.)

  Symmetry information by spglib:
  | Precision set to  0.1E-04
  | Number of Operations  : 1
  | Space group           : 1
  | International         : P1        1
  | Schoenflies           : C1^1
  Input structure read successfully.
  The structure contains       68 atoms,  and a total of       2016.000 electrons.

  Input geometry:
  | Unit cell:
  |       -4.96210426        4.96210426       35.24950964
  |        4.96210426       -4.96210426       35.24950964
  |        2.48105213        2.48105213      -17.62475482
  | Atomic structure:
  |       Atom                x [A]            y [A]            z [A]
  |    1: Species Ba           -0.00000000        0.00000000       15.24743871
  |    2: Species Ba           -2.48105213        2.48105213       32.87219353
  |    3: Species Ba            2.48105213       -2.48105213       32.87219353
  |    4: Species Ba           -0.00000000        0.00000000       50.49694835
  |    5: Species Ba           -0.00000000        0.00000000       20.00207093
  |    6: Species Ba           -2.48105213        2.48105213       37.62682575
  |    7: Species Ba            2.48105213       -2.48105213       37.62682575
  |    8: Species Ba           -0.00000000        0.00000000       55.25158057
  |    9: Species Ba           -0.00000000        0.00000000       10.59303247
  |   10: Species Ba           -2.48105213        2.48105213       28.21778729
  |   11: Species Ba            2.48105213       -2.48105213       28.21778729
  |   12: Species Ba            0.00000000       -0.00000000       45.84254211
  |   13: Species Ba           -0.00000000        0.00000000       24.65647717
  |   14: Species Ba           -2.48105213        2.48105213       42.28123199
  |   15: Species Ba            2.48105213       -2.48105213       42.28123199
  |   16: Species Ba            0.00000000       -0.00000000       59.90598681
  |   17: Species S             0.00000000        2.48105213        0.00000000
  |   18: Species S            -2.48105213        4.96210426       17.62475482
  |   19: Species S             2.48105213        0.00000000       17.62475482
  |   20: Species S             0.00000000        2.48105213       35.24950964
  |   21: Species S             0.00000000        2.48105213       17.62475482
  |   22: Species S             2.48105213        0.00000000        0.00000000
  |   23: Species S             2.48105213        0.00000000       35.24950964
  |   24: Species S             4.96210426       -2.48105213       17.62475482
  |   25: Species S            -0.00000000        0.00000000       32.75826993
  |   26: Species S            -2.48105213        2.48105213       50.38302475
  |   27: Species S             2.48105213       -2.48105213       50.38302475
  |   28: Species S             0.00000000       -0.00000000       68.00777957
  |   29: Species S             0.00000000       -0.00000000        2.49123971
  |   30: Species S            -2.48105213        2.48105213       20.11599453
  |   31: Species S             2.48105213       -2.48105213       20.11599453
  |   32: Species S             0.00000000       -0.00000000       37.74074935
  |   33: Species S             0.00000000       -0.00000000       27.71486386
  |   34: Species S            -2.48105213        2.48105213       45.33961868
  |   35: Species S             2.48105213       -2.48105213       45.33961868
  |   36: Species S             0.00000000       -0.00000000       62.96437350
  |   37: Species S             0.00000000       -0.00000000        7.53464578
  |   38: Species S            -2.48105213        2.48105213       25.15940060
  |   39: Species S             2.48105213       -2.48105213       25.15940060
  |   40: Species S             0.00000000       -0.00000000       42.78415542
  |   41: Species S            -0.00138062        2.48243275       12.70811896
  |   42: Species S            -2.48105213        4.96210426       30.34268131
  |   43: Species S             2.48105213        0.00000000       30.34268131
  |   44: Species S            -0.00000000        2.48105213       47.96743613
  |   45: Species S             2.48105213        0.00000000       12.71792649
  |   46: Species S            -0.00000000        2.48105213       30.34268131
  |   47: Species S             4.96210426       -2.48105213       30.34268131
  |   48: Species S             2.48105213        0.00000000       47.96743613
  |   49: Species S             2.48105213        0.00000000        4.90682833
  |   50: Species S             0.00000000        2.48105213       22.53158315
  |   51: Species S             4.96210426       -2.48105213       22.53158315
  |   52: Species S             2.48105213       -0.00000000       40.15633797
  |   53: Species S             0.00000000        2.48105213        4.90682833
  |   54: Species S            -2.48105213        4.96210426       22.53158315
  |   55: Species S             2.48105213        0.00000000       22.53158315
  |   56: Species S             0.00000000        2.48105213       40.15633797
  |   57: Species Zr            0.00000000        0.00000000        0.00000000
  |   58: Species Zr           -2.48105213        2.48105213       17.62475482
  |   59: Species Zr            2.48105213       -2.48105213       17.62475482
  |   60: Species Zr            0.00000000        0.00000000       35.24950964
  |   61: Species Zr            0.00000000       -0.00000000       30.19578709
  |   62: Species Zr           -2.48105213        2.48105213       47.82054191
  |   63: Species Zr            2.48105213       -2.48105213       47.82054191
  |   64: Species Zr           -0.00000000        0.00000000       65.44529673
  |   65: Species Zr           -0.00000000        0.00000000        5.05372255
  |   66: Species Zr           -2.48105213        2.48105213       22.67847737
  |   67: Species Zr            2.48105213       -2.48105213       22.67847737
  |   68: Species Zr            0.00000000       -0.00000000       40.30323219

  Lattice parameters for 3D lattice (in Angstroms) :    35.941242   35.941242   17.970621
  Angle(s) between unit vectors (in degrees)       :   164.128614  164.128614   22.518486


  Quantities derived from the lattice vectors (in Angstrom^-1):
  | Reciprocal lattice vector 1: -0.000000  0.633117  0.089124
  | Reciprocal lattice vector 2:  0.633117  0.000000  0.089124
  | Reciprocal lattice vector 3:  1.266234  1.266234 -0.000000
  | Unit cell volume                               :   0.173586E+04  Angstrom^3

  Fractional coordinates:
                         L1                L2                L3
       atom_frac         0.21627873        0.21627873       -0.00000000  Ba
       atom_frac         0.71627873        0.21627873       -0.00000000  Ba
       atom_frac         0.21627873        0.71627874       -0.00000000  Ba
       atom_frac         0.71627873        0.71627874       -0.00000000  Ba
       atom_frac         0.28372126        0.28372126       -0.00000000  Ba
       atom_frac         0.78372126        0.28372126       -0.00000000  Ba
       atom_frac         0.28372126        0.78372127       -0.00000000  Ba
       atom_frac         0.78372126        0.78372126       -0.00000000  Ba
       atom_frac         0.15025787        0.15025787       -0.00000000  Ba
       atom_frac         0.65025787        0.15025787       -0.00000000  Ba
       atom_frac         0.15025787        0.65025787       -0.00000000  Ba
       atom_frac         0.65025787        0.65025787       -0.00000000  Ba
       atom_frac         0.34974213        0.34974213       -0.00000000  Ba
       atom_frac         0.84974213        0.34974213       -0.00000000  Ba
       atom_frac         0.34974213        0.84974213       -0.00000000  Ba
       atom_frac         0.84974213        0.84974213       -0.00000000  Ba
       atom_frac         0.25000000        0.00000000        0.50000000  S
       atom_frac         0.75000000       -0.00000000        0.50000000  S
       atom_frac         0.25000000        0.50000000        0.50000000  S
       atom_frac         0.75000000        0.50000000        0.50000000  S
       atom_frac         0.50000000        0.25000000        0.50000000  S
       atom_frac        -0.00000000        0.25000000        0.50000000  S
       atom_frac         0.50000000        0.75000000        0.50000000  S
       atom_frac        -0.00000000        0.75000000        0.50000000  S
       atom_frac         0.46466277        0.46466277       -0.00000000  S
       atom_frac         0.96466277        0.46466277       -0.00000000  S
       atom_frac         0.46466277        0.96466278       -0.00000000  S
       atom_frac         0.96466277        0.96466277       -0.00000000  S
       atom_frac         0.03533722        0.03533722       -0.00000000  S
       atom_frac         0.53533723        0.03533722       -0.00000000  S
       atom_frac         0.03533722        0.53533723       -0.00000000  S
       atom_frac         0.53533722        0.53533723       -0.00000000  S
       atom_frac         0.39312410        0.39312411       -0.00000000  S
       atom_frac         0.89312410        0.39312410       -0.00000000  S
       atom_frac         0.39312410        0.89312411       -0.00000000  S
       atom_frac         0.89312410        0.89312411       -0.00000000  S
       atom_frac         0.10687589        0.10687589       -0.00000000  S
       atom_frac         0.60687589        0.10687589       -0.00000000  S
       atom_frac         0.10687589        0.60687590       -0.00000000  S
       atom_frac         0.60687589        0.60687589       -0.00000000  S
       atom_frac         0.43039863        0.18012040        0.50000000  S
       atom_frac         0.93039863        0.18039863        0.50000000  S
       atom_frac         0.43039863        0.68039863        0.50000000  S
       atom_frac         0.93039863        0.68039863        0.50000000  S
       atom_frac         0.18039863        0.43039863        0.50000000  S
       atom_frac         0.68039863        0.43039863        0.50000000  S
       atom_frac         0.18039863        0.93039863        0.50000000  S
       atom_frac         0.68039863        0.93039863        0.50000000  S
       atom_frac         0.06960137        0.31960137        0.50000000  S
       atom_frac         0.56960137        0.31960137        0.50000000  S
       atom_frac         0.06960137        0.81960137        0.50000000  S
       atom_frac         0.56960137        0.81960137        0.50000000  S
       atom_frac         0.31960137        0.06960137        0.50000000  S
       atom_frac         0.81960137        0.06960137        0.50000000  S
       atom_frac         0.31960137        0.56960137        0.50000000  S
       atom_frac         0.81960137        0.56960137        0.50000000  S
       atom_frac         0.00000000        0.00000000        0.00000000  Zr
       atom_frac         0.50000000       -0.00000000       -0.00000000  Zr
       atom_frac        -0.00000000        0.50000000       -0.00000000  Zr
       atom_frac         0.50000000        0.50000000       -0.00000000  Zr
       atom_frac         0.42831499        0.42831499       -0.00000000  Zr
       atom_frac         0.92831499        0.42831499       -0.00000000  Zr
       atom_frac         0.42831499        0.92831500       -0.00000000  Zr
       atom_frac         0.92831499        0.92831499       -0.00000000  Zr
       atom_frac         0.07168500        0.07168500       -0.00000000  Zr
       atom_frac         0.57168500        0.07168500       -0.00000000  Zr
       atom_frac         0.07168500        0.57168501       -0.00000000  Zr
       atom_frac         0.57168500        0.57168500       -0.00000000  Zr


  Finished reading input file 'control.in'.


------------------------------------------------------------
          Reading geometry description geometry.in.
------------------------------------------------------------

  Consistency checks for stacksize environment parameter are next.

  | Maximum stacksize for task 0: unlimited
  | Maximum stacksize for task 1: unlimited
  | Maximum stacksize for task 2: unlimited
  | Maximum stacksize for task 3: unlimited
  | Maximum stacksize for task 4: unlimited
  | Maximum stacksize for task 5: unlimited
  | Maximum stacksize for task 6: unlimited
  | Maximum stacksize for task 7: unlimited
  | Maximum stacksize for task 8: unlimited
  | Maximum stacksize for task 9: unlimited
  | Maximum stacksize for task 10: unlimited
  | Maximum stacksize for task 11: unlimited
  | Maximum stacksize for task 12: unlimited
  | Maximum stacksize for task 13: unlimited
  | Maximum stacksize for task 14: unlimited
  | Maximum stacksize for task 15: unlimited
  | Maximum stacksize for task 16: unlimited
  | Maximum stacksize for task 17: unlimited
  | Maximum stacksize for task 18: unlimited
  | Maximum stacksize for task 19: unlimited
  | Maximum stacksize for task 20: unlimited
  | Maximum stacksize for task 21: unlimited
  | Maximum stacksize for task 22: unlimited
  | Maximum stacksize for task 23: unlimited
  | Maximum stacksize for task 24: unlimited
  | Maximum stacksize for task 25: unlimited
  | Maximum stacksize for task 26: unlimited
  | Maximum stacksize for task 27: unlimited
  | Maximum stacksize for task 28: unlimited
  | Maximum stacksize for task 29: unlimited
  | Maximum stacksize for task 30: unlimited
  | Maximum stacksize for task 31: unlimited
  | Maximum stacksize for task 32: unlimited
  | Maximum stacksize for task 33: unlimited
  | Maximum stacksize for task 34: unlimited
  | Maximum stacksize for task 35: unlimited
  | Maximum stacksize for task 36: unlimited
  | Maximum stacksize for task 37: unlimited
  | Maximum stacksize for task 38: unlimited
  | Maximum stacksize for task 39: unlimited
  | Maximum stacksize for task 40: unlimited
  | Maximum stacksize for task 41: unlimited
  | Maximum stacksize for task 42: unlimited
  | Maximum stacksize for task 43: unlimited
  | Maximum stacksize for task 44: unlimited
  | Maximum stacksize for task 45: unlimited
  | Maximum stacksize for task 46: unlimited
  | Maximum stacksize for task 47: unlimited
  | Maximum stacksize for task 48: unlimited
  | Maximum stacksize for task 49: unlimited
  | Maximum stacksize for task 50: unlimited
  | Maximum stacksize for task 51: unlimited
  | Maximum stacksize for task 52: unlimited
  | Maximum stacksize for task 53: unlimited
  | Maximum stacksize for task 54: unlimited
  | Maximum stacksize for task 55: unlimited
  | Maximum stacksize for task 56: unlimited
  | Maximum stacksize for task 57: unlimited
  | Maximum stacksize for task 58: unlimited
  | Maximum stacksize for task 59: unlimited
  | Maximum stacksize for task 60: unlimited
  | Maximum stacksize for task 61: unlimited
  | Maximum stacksize for task 62: unlimited
  | Maximum stacksize for task 63: unlimited
  | Maximum stacksize for task 64: unlimited
  | Maximum stacksize for task 65: unlimited
  | Maximum stacksize for task 66: unlimited
  | Maximum stacksize for task 67: unlimited
  | Maximum stacksize for task 68: unlimited
  | Maximum stacksize for task 69: unlimited
  | Maximum stacksize for task 70: unlimited
  | Maximum stacksize for task 71: unlimited
  | Maximum stacksize for task 72: unlimited
  | Maximum stacksize for task 73: unlimited
  | Maximum stacksize for task 74: unlimited
  | Maximum stacksize for task 75: unlimited
  | Maximum stacksize for task 76: unlimited
  | Maximum stacksize for task 77: unlimited
  | Maximum stacksize for task 78: unlimited
  | Maximum stacksize for task 79: unlimited
  | Maximum stacksize for task 80: unlimited
  | Maximum stacksize for task 81: unlimited
  | Maximum stacksize for task 82: unlimited
  | Maximum stacksize for task 83: unlimited
  | Maximum stacksize for task 84: unlimited
  | Maximum stacksize for task 85: unlimited
  | Maximum stacksize for task 86: unlimited
  | Maximum stacksize for task 87: unlimited
  | Maximum stacksize for task 88: unlimited
  | Maximum stacksize for task 89: unlimited
  | Maximum stacksize for task 90: unlimited
  | Maximum stacksize for task 91: unlimited
  | Maximum stacksize for task 92: unlimited
  | Maximum stacksize for task 93: unlimited
  | Maximum stacksize for task 94: unlimited
  | Maximum stacksize for task 95: unlimited
  | Maximum stacksize for task 96: unlimited
  | Maximum stacksize for task 97: unlimited
  | Maximum stacksize for task 98: unlimited
  | Maximum stacksize for task 99: unlimited
  | Maximum stacksize for task 100: unlimited
  | Maximum stacksize for task 101: unlimited
  | Maximum stacksize for task 102: unlimited
  | Maximum stacksize for task 103: unlimited
  | Maximum stacksize for task 104: unlimited
  | Maximum stacksize for task 105: unlimited
  | Maximum stacksize for task 106: unlimited
  | Maximum stacksize for task 107: unlimited
  | Maximum stacksize for task 108: unlimited
  | Maximum stacksize for task 109: unlimited
  | Maximum stacksize for task 110: unlimited
  | Maximum stacksize for task 111: unlimited
  | Maximum stacksize for task 112: unlimited
  | Maximum stacksize for task 113: unlimited
  | Maximum stacksize for task 114: unlimited
  | Maximum stacksize for task 115: unlimited
  | Maximum stacksize for task 116: unlimited
  | Maximum stacksize for task 117: unlimited
  | Maximum stacksize for task 118: unlimited
  | Maximum stacksize for task 119: unlimited
  | Maximum stacksize for task 120: unlimited
  | Maximum stacksize for task 121: unlimited
  | Maximum stacksize for task 122: unlimited
  | Maximum stacksize for task 123: unlimited
  | Maximum stacksize for task 124: unlimited
  | Maximum stacksize for task 125: unlimited
  | Maximum stacksize for task 126: unlimited
  | Maximum stacksize for task 127: unlimited
  | Maximum stacksize for task 128: unlimited
  | Maximum stacksize for task 129: unlimited
  | Maximum stacksize for task 130: unlimited
  | Maximum stacksize for task 131: unlimited
  | Maximum stacksize for task 132: unlimited
  | Maximum stacksize for task 133: unlimited
  | Maximum stacksize for task 134: unlimited
  | Maximum stacksize for task 135: unlimited
  | Maximum stacksize for task 136: unlimited
  | Maximum stacksize for task 137: unlimited
  | Maximum stacksize for task 138: unlimited
  | Maximum stacksize for task 139: unlimited
  | Maximum stacksize for task 140: unlimited
  | Maximum stacksize for task 141: unlimited
  | Maximum stacksize for task 142: unlimited
  | Maximum stacksize for task 143: unlimited
  | Maximum stacksize for task 144: unlimited
  | Maximum stacksize for task 145: unlimited
  | Maximum stacksize for task 146: unlimited
  | Maximum stacksize for task 147: unlimited
  | Maximum stacksize for task 148: unlimited
  | Maximum stacksize for task 149: unlimited
  | Maximum stacksize for task 150: unlimited
  | Maximum stacksize for task 151: unlimited
  | Maximum stacksize for task 152: unlimited
  | Maximum stacksize for task 153: unlimited
  | Maximum stacksize for task 154: unlimited
  | Maximum stacksize for task 155: unlimited
  | Maximum stacksize for task 156: unlimited
  | Maximum stacksize for task 157: unlimited
  | Maximum stacksize for task 158: unlimited
  | Maximum stacksize for task 159: unlimited
  | Maximum stacksize for task 160: unlimited
  | Maximum stacksize for task 161: unlimited
  | Maximum stacksize for task 162: unlimited
  | Maximum stacksize for task 163: unlimited
  | Maximum stacksize for task 164: unlimited
  | Maximum stacksize for task 165: unlimited
  | Maximum stacksize for task 166: unlimited
  | Maximum stacksize for task 167: unlimited
  | Maximum stacksize for task 168: unlimited
  | Maximum stacksize for task 169: unlimited
  | Maximum stacksize for task 170: unlimited
  | Maximum stacksize for task 171: unlimited
  | Maximum stacksize for task 172: unlimited
  | Maximum stacksize for task 173: unlimited
  | Maximum stacksize for task 174: unlimited
  | Maximum stacksize for task 175: unlimited
  | Maximum stacksize for task 176: unlimited
  | Maximum stacksize for task 177: unlimited
  | Maximum stacksize for task 178: unlimited
  | Maximum stacksize for task 179: unlimited
  | Maximum stacksize for task 180: unlimited
  | Maximum stacksize for task 181: unlimited
  | Maximum stacksize for task 182: unlimited
  | Maximum stacksize for task 183: unlimited
  | Maximum stacksize for task 184: unlimited
  | Maximum stacksize for task 185: unlimited
  | Maximum stacksize for task 186: unlimited
  | Maximum stacksize for task 187: unlimited
  | Maximum stacksize for task 188: unlimited
  | Maximum stacksize for task 189: unlimited
  | Maximum stacksize for task 190: unlimited
  | Maximum stacksize for task 191: unlimited
  | Maximum stacksize for task 192: unlimited
  | Maximum stacksize for task 193: unlimited
  | Maximum stacksize for task 194: unlimited
  | Maximum stacksize for task 195: unlimited
  | Maximum stacksize for task 196: unlimited
  | Maximum stacksize for task 197: unlimited
  | Maximum stacksize for task 198: unlimited
  | Maximum stacksize for task 199: unlimited
  | Maximum stacksize for task 200: unlimited
  | Maximum stacksize for task 201: unlimited
  | Maximum stacksize for task 202: unlimited
  | Maximum stacksize for task 203: unlimited
  | Maximum stacksize for task 204: unlimited
  | Maximum stacksize for task 205: unlimited
  | Maximum stacksize for task 206: unlimited
  | Maximum stacksize for task 207: unlimited
  | Maximum stacksize for task 208: unlimited
  | Maximum stacksize for task 209: unlimited
  | Maximum stacksize for task 210: unlimited
  | Maximum stacksize for task 211: unlimited
  | Maximum stacksize for task 212: unlimited
  | Maximum stacksize for task 213: unlimited
  | Maximum stacksize for task 214: unlimited
  | Maximum stacksize for task 215: unlimited
  | Maximum stacksize for task 216: unlimited
  | Maximum stacksize for task 217: unlimited
  | Maximum stacksize for task 218: unlimited
  | Maximum stacksize for task 219: unlimited
  | Maximum stacksize for task 220: unlimited
  | Maximum stacksize for task 221: unlimited
  | Maximum stacksize for task 222: unlimited
  | Maximum stacksize for task 223: unlimited
  | Maximum stacksize for task 224: unlimited
  | Maximum stacksize for task 225: unlimited
  | Maximum stacksize for task 226: unlimited
  | Maximum stacksize for task 227: unlimited
  | Maximum stacksize for task 228: unlimited
  | Maximum stacksize for task 229: unlimited
  | Maximum stacksize for task 230: unlimited
  | Maximum stacksize for task 231: unlimited
  | Maximum stacksize for task 232: unlimited
  | Maximum stacksize for task 233: unlimited
  | Maximum stacksize for task 234: unlimited
  | Maximum stacksize for task 235: unlimited
  | Maximum stacksize for task 236: unlimited
  | Maximum stacksize for task 237: unlimited
  | Maximum stacksize for task 238: unlimited
  | Maximum stacksize for task 239: unlimited
  | Maximum stacksize for task 240: unlimited
  | Maximum stacksize for task 241: unlimited
  | Maximum stacksize for task 242: unlimited
  | Maximum stacksize for task 243: unlimited
  | Maximum stacksize for task 244: unlimited
  | Maximum stacksize for task 245: unlimited
  | Maximum stacksize for task 246: unlimited
  | Maximum stacksize for task 247: unlimited
  | Maximum stacksize for task 248: unlimited
  | Maximum stacksize for task 249: unlimited
  | Maximum stacksize for task 250: unlimited
  | Maximum stacksize for task 251: unlimited
  | Maximum stacksize for task 252: unlimited
  | Maximum stacksize for task 253: unlimited
  | Maximum stacksize for task 254: unlimited
  | Maximum stacksize for task 255: unlimited
  | Maximum stacksize for task 256: unlimited
  | Maximum stacksize for task 257: unlimited
  | Maximum stacksize for task 258: unlimited
  | Maximum stacksize for task 259: unlimited
  | Maximum stacksize for task 260: unlimited
  | Maximum stacksize for task 261: unlimited
  | Maximum stacksize for task 262: unlimited
  | Maximum stacksize for task 263: unlimited
  | Maximum stacksize for task 264: unlimited
  | Maximum stacksize for task 265: unlimited
  | Maximum stacksize for task 266: unlimited
  | Maximum stacksize for task 267: unlimited
  | Maximum stacksize for task 268: unlimited
  | Maximum stacksize for task 269: unlimited
  | Maximum stacksize for task 270: unlimited
  | Maximum stacksize for task 271: unlimited
  | Maximum stacksize for task 272: unlimited
  | Maximum stacksize for task 273: unlimited
  | Maximum stacksize for task 274: unlimited
  | Maximum stacksize for task 275: unlimited
  | Maximum stacksize for task 276: unlimited
  | Maximum stacksize for task 277: unlimited
  | Maximum stacksize for task 278: unlimited
  | Maximum stacksize for task 279: unlimited
  | Maximum stacksize for task 280: unlimited
  | Maximum stacksize for task 281: unlimited
  | Maximum stacksize for task 282: unlimited
  | Maximum stacksize for task 283: unlimited
  | Maximum stacksize for task 284: unlimited
  | Maximum stacksize for task 285: unlimited
  | Maximum stacksize for task 286: unlimited
  | Maximum stacksize for task 287: unlimited
  | Maximum stacksize for task 288: unlimited
  | Maximum stacksize for task 289: unlimited
  | Maximum stacksize for task 290: unlimited
  | Maximum stacksize for task 291: unlimited
  | Maximum stacksize for task 292: unlimited
  | Maximum stacksize for task 293: unlimited
  | Maximum stacksize for task 294: unlimited
  | Maximum stacksize for task 295: unlimited
  | Maximum stacksize for task 296: unlimited
  | Maximum stacksize for task 297: unlimited
  | Maximum stacksize for task 298: unlimited
  | Maximum stacksize for task 299: unlimited
  | Maximum stacksize for task 300: unlimited
  | Maximum stacksize for task 301: unlimited
  | Maximum stacksize for task 302: unlimited
  | Maximum stacksize for task 303: unlimited
  | Maximum stacksize for task 304: unlimited
  | Maximum stacksize for task 305: unlimited
  | Maximum stacksize for task 306: unlimited
  | Maximum stacksize for task 307: unlimited
  | Maximum stacksize for task 308: unlimited
  | Maximum stacksize for task 309: unlimited
  | Maximum stacksize for task 310: unlimited
  | Maximum stacksize for task 311: unlimited
  | Maximum stacksize for task 312: unlimited
  | Maximum stacksize for task 313: unlimited
  | Maximum stacksize for task 314: unlimited
  | Maximum stacksize for task 315: unlimited
  | Maximum stacksize for task 316: unlimited
  | Maximum stacksize for task 317: unlimited
  | Maximum stacksize for task 318: unlimited
  | Maximum stacksize for task 319: unlimited
  | Maximum stacksize for task 320: unlimited
  | Maximum stacksize for task 321: unlimited
  | Maximum stacksize for task 322: unlimited
  | Maximum stacksize for task 323: unlimited
  | Maximum stacksize for task 324: unlimited
  | Maximum stacksize for task 325: unlimited
  | Maximum stacksize for task 326: unlimited
  | Maximum stacksize for task 327: unlimited
  | Maximum stacksize for task 328: unlimited
  | Maximum stacksize for task 329: unlimited
  | Maximum stacksize for task 330: unlimited
  | Maximum stacksize for task 331: unlimited
  | Maximum stacksize for task 332: unlimited
  | Maximum stacksize for task 333: unlimited
  | Maximum stacksize for task 334: unlimited
  | Maximum stacksize for task 335: unlimited
  | Maximum stacksize for task 336: unlimited
  | Maximum stacksize for task 337: unlimited
  | Maximum stacksize for task 338: unlimited
  | Maximum stacksize for task 339: unlimited
  | Maximum stacksize for task 340: unlimited
  | Maximum stacksize for task 341: unlimited
  | Maximum stacksize for task 342: unlimited
  | Maximum stacksize for task 343: unlimited
  | Maximum stacksize for task 344: unlimited
  | Maximum stacksize for task 345: unlimited
  | Maximum stacksize for task 346: unlimited
  | Maximum stacksize for task 347: unlimited
  | Maximum stacksize for task 348: unlimited
[...]
   1256       0.00000           0.044189            1.20244
   1257       0.00000           0.044349            1.20679
   1258       0.00000           0.044532            1.21177
   1259       0.00000           0.045141            1.22835
   1260       0.00000           0.045166            1.22903
   1261       0.00000           0.045415            1.23580
   1262       0.00000           0.045424            1.23605
   1263       0.00000           0.045572            1.24008
   1264       0.00000           0.045676            1.24290
   1265       0.00000           0.046342            1.26102
   1266       0.00000           0.046353            1.26132
   1267       0.00000           0.046855            1.27500
   1268       0.00000           0.046874            1.27551
   1269       0.00000           0.046878            1.27562
   1270       0.00000           0.047574            1.29456
   1271       0.00000           0.047575            1.29459
   1272       0.00000           0.047712            1.29831
   1273       0.00000           0.048665            1.32425
   1274       0.00000           0.048770            1.32711
   1275       0.00000           0.049313            1.34187
   1276       0.00000           0.050420            1.37199
   1277       0.00000           0.050423            1.37208
   1278       0.00000           0.051449            1.39999
   1279       0.00000           0.051468            1.40052
   1280       0.00000           0.053564            1.45754
   1281       0.00000           0.053762            1.46293
   1282       0.00000           0.053771            1.46319

  What follows are estimated values for band gap, HOMO, LUMO, etc.
  | They are estimated on a discrete k-point grid and not necessarily exact.
  | For converged numbers, create a DOS and/or band structure plot on a denser k-grid.

  Highest occupied state (VBM) at     -7.44471485 eV (relative to internal zero)
  | Occupation number:      1.99999981
  | K-point:       1 at    0.000000    0.000000    0.000000 (in units of recip. lattice)

  Lowest unoccupied state (CBM) at    -7.13822251 eV (relative to internal zero)
  | Occupation number:      0.00000000
  | K-point:       1 at    0.000000    0.000000    0.000000 (in units of recip. lattice)

  ESTIMATED overall HOMO-LUMO gap:      0.30649233 eV between HOMO at k-point 1 and LUMO at k-point 1
  | This appears to be a direct band gap.
  The gap value is above 0.2 eV. Unless you are using a very sparse k-point grid,
  this system is most likely an insulator or a semiconductor.

  | Chemical Potential                          :    -7.40789341 eV
  | Note that, for insulating systems, the printed 'chemical potential' value is not uniquely defined.
  | It can be anywhere in the energy gap, as long as it correctly separates occupied and unoccupied states.
  | In systems with a gap, the physically relevant chemical potential is the VBM or HOMO.

  Self-consistency cycle converged.


------------------------------------------------------------
  End self-consistency iteration #    91       :  max(cpu_time)    wall_clock(cpu1)
  | Time for this iteration                     :       30.050 s          29.510 s
  | Charge density & force component update     :       20.048 s          20.049 s
  | Density mixing                              :        0.807 s           0.261 s
  | Hartree multipole update                    :        0.018 s           0.018 s
  | Hartree multipole summation                 :        1.601 s           1.601 s
  | Hartree pot. SCF incomplete forces          :        1.034 s           1.035 s
  | Integration                                 :        1.025 s           1.025 s
  | Solution of K.-S. eqns.                     :        5.504 s           5.505 s
  | Total energy evaluation                     :        0.003 s           0.003 s

  Partial memory accounting:
  | Current value for overall tracked memory usage:
  |   Minimum:      164.941 MB (on task   7)
  |   Maximum:      174.117 MB (on task  16)
  |   Average:      168.723 MB
  | Peak value for overall tracked memory usage:
  |   Minimum:      355.666 MB (on task   7 after allocating temp_ham_ovlp)
  |   Maximum:      364.842 MB (on task  16 after allocating temp_ham_ovlp)
  |   Average:      359.448 MB
  | Largest tracked array allocation so far:
  |   Minimum:       95.364 MB (overlap_matrix on task   0)
  |   Maximum:       95.364 MB (overlap_matrix on task   0)
  |   Average:       95.364 MB
  Note:  These values currently only include a subset of arrays which are explicitly tracked.
  The "true" memory usage will be greater.
------------------------------------------------------------
  Removing unitary transformations (pure translations, rotations) from forces on atoms.
  Atomic forces before filtering:
  | Net force on center of mass :   0.356092E-04 -0.504659E-04 -0.130610E-03 eV/A
  Atomic forces after filtering:
  | Net force on center of mass :   0.280189E-17  0.740455E-18  0.174225E-18 eV/A

  Energy and forces in a compact form:
  | Total energy uncorrected      :         -0.522028710876201E+07 eV
  | Total energy corrected        :         -0.522028710876201E+07 eV  <-- do not rely on this value for anything but (periodic) metals
  | Electronic free energy        :         -0.522028710876201E+07 eV
  Total atomic forces (unitary forces cleaned) [eV/Ang]:
  |    1         -0.411381884886236E-03         -0.161184449479672E-02          0.510483364135654E-03
  |    2         -0.398865850927234E-03          0.141283889348296E-02          0.841944717253211E-04
  |    3          0.288512160891912E-03         -0.815121190855157E-03         -0.388065696141690E-03
  |    4          0.301592796561922E-03          0.895787930270243E-03         -0.569412123952102E-03
  |    5         -0.155553918598514E-04         -0.154412213916425E-03          0.255938282270644E-03
  |    6         -0.484018121832492E-05          0.499757603703149E-04          0.301230404970320E-03
  |    7         -0.800383864690269E-05         -0.338072619302414E-04          0.350531715534156E-03
  |    8          0.145270734052223E-04          0.118309436919897E-03          0.347520435674154E-03
  |    9         -0.686636455792074E-03         -0.175609863355505E-02         -0.266641226434770E-02
  |   10         -0.670628568645323E-03          0.270209123881679E-02         -0.300145317216210E-02
  |   11          0.412218361287452E-03          0.118482088040039E-02         -0.356269933780354E-03
  |   12          0.418881243670805E-03         -0.104992506748309E-02         -0.853097239270446E-04
  |   13          0.348088131784417E-04         -0.491638694882165E-04          0.664643996202336E-03
  |   14         -0.434124956689539E-04         -0.233943558398667E-05         -0.176598864628534E-03
  |   15         -0.753763446579205E-04          0.295878987383617E-05          0.132706395239480E-02
  |   16          0.710455238857125E-04          0.160131697830575E-04         -0.142490899608079E-04
  |   17          0.112185989775608E-03          0.390576280658053E-03         -0.128161078017526E-03
  |   18          0.823057229506811E-04         -0.391982609219888E-03         -0.100823878008109E-03
  |   19         -0.109012483022668E-03          0.469369246837425E-03         -0.240621434731983E-03
  |   20         -0.793931307887636E-04         -0.471219131839474E-03         -0.213530766070470E-03
  |   21          0.352649967809877E-03         -0.526012862594391E-04         -0.773465079211065E-03
  |   22          0.732878784215605E-04          0.742656755439145E-04         -0.465766521409494E-03
  |   23         -0.522642182336102E-03          0.159358535021802E-04         -0.163318263845792E-02
  |   24         -0.834803204865655E-04          0.177032298083248E-04         -0.510473493576974E-04
  |   25         -0.747874714875684E-02         -0.249914140455598E-03         -0.676447117038431E-02
  |   26         -0.163095099365622E-03          0.690649842367067E-04          0.462187653441942E-03
  |   27          0.562833330754796E-02         -0.250677944990889E-03         -0.341220523470513E-02
  |   28          0.169579248935194E-03          0.699257858821336E-04          0.784645199124044E-03
  |   29          0.101885764466251E-03          0.519828007242531E-05         -0.534953492409561E-03
  |   30         -0.962212817622048E-04         -0.127242264104022E-04         -0.119912693394978E-02
  |   31         -0.777202573671893E-04         -0.255482785875633E-05         -0.571713864085398E-03
  |   32          0.302800997415882E-04          0.117706041536345E-05         -0.118206838747517E-02
  |   33          0.500386020385733E-02         -0.265848957940896E-03         -0.220727719638990E-02
  |   34          0.507546169488031E-03          0.109977810342760E-03          0.830572919900694E-03
  |   35         -0.678339435196526E-02         -0.266114191101507E-03         -0.478694497488325E-02
  |   36         -0.476413714319341E-03          0.109778824479810E-03          0.580204459811586E-03
  |   37          0.806516880423471E-04         -0.784783156328632E-04         -0.140365836039737E-02
  |   38          0.761242341413912E-04          0.591732212775225E-04         -0.190764905601044E-02
  |   39         -0.844926886127498E-04         -0.295233958669683E-03         -0.928125420239514E-03
  |   40         -0.864746620038723E-04          0.290111125225927E-03         -0.107402822856974E-02
  |   41          0.216444487932260E-01         -0.317880273489082E-02          0.235393760688294E-01
  |   42          0.797303300355882E-03          0.375145038949235E-03          0.901766913789014E-03
  |   43         -0.419167704660913E-02          0.266056812896741E-03         -0.418110254102748E-03
  |   44         -0.107953144827103E-02          0.456255683131911E-03          0.344953134512520E-03
  |   45         -0.218058088659771E-02          0.272349016518846E-02          0.164003558619200E-02
  |   46         -0.491650495866420E-03         -0.924265285922595E-03          0.151074655301013E-02
  |   47          0.413772101069023E-03         -0.776351477803546E-03          0.162626023668838E-02
  |   48         -0.126303521480504E-02          0.258256940889582E-02          0.149728707455390E-02
  |   49          0.561979058188312E-04         -0.401713295083901E-04         -0.197708532361570E-03
  |   50          0.106624925650752E-03          0.374756265494271E-04         -0.510628951877599E-03
  |   51         -0.447376634355091E-04         -0.785332168275675E-04         -0.220065248002941E-03
  |   52         -0.121141438851680E-03          0.763445861336346E-04         -0.543025520661824E-03
  |   53          0.467989936965638E-04          0.223723635426398E-03         -0.339075166098582E-03
  |   54         -0.153977105817301E-04         -0.222541976153854E-03         -0.265540048317772E-03
  |   55         -0.532198856105259E-04          0.211285864702486E-03         -0.281834575022134E-03
  |   56          0.930436616844619E-05         -0.338141053398547E-03         -0.265968588720584E-03
  |   57         -0.326767752285324E-03         -0.634173141428577E-05         -0.211002945887022E-03
  |   58          0.637787781927945E-03          0.996716043105930E-05          0.275190447569085E-02
  |   59          0.328962560937317E-03         -0.107154499448425E-04          0.432258844810807E-04
  |   60         -0.528405026215644E-03          0.725220561757179E-05          0.435741971462008E-02
  |   61         -0.187928556150214E-02          0.201785359646873E-03         -0.303830966516460E-02
  |   62         -0.205689343662299E-03         -0.109101382558994E-02         -0.128795061958748E-02
  |   63         -0.741148526513624E-02          0.198784484652434E-03         -0.516091749388050E-02
  |   64          0.358786407000602E-03         -0.108910791033534E-02         -0.129932279041466E-02
  |   65         -0.272028908617387E-04         -0.345544417052119E-04          0.144552088407591E-02
  |   66          0.283159985512983E-04          0.503332787037329E-04          0.191033674978593E-02
  |   67         -0.800019939792643E-05          0.318260737664849E-04          0.130758065936511E-02
  |   68         -0.498321968188238E-05          0.832533285909095E-04          0.150042154298422E-02

  ------------------------------------ 
  Start decomposition of the XC Energy 
  ------------------------------------ 
  X and C from original XC functional choice 
  Hartree-Fock Energy :          0.000000000 Ha              0.000000000 eV
  X Energy            :      -5376.120521517 Ha        -146291.682629343 eV
  C Energy            :       -112.346725190 Ha          -3057.109936464 eV
  XC Energy w/o HF    :      -5488.467246707 Ha        -149348.792565807 eV
  Total XC Energy     :      -5488.467246707 Ha        -149348.792565807 eV
  ------------------------------------ 
  LDA X and C from self-consistent density 
  X Energy LDA        :      -5211.414279289 Ha        -141809.797742511 eV
  C Energy LDA        :       -180.827217546 Ha          -4920.558944716 eV
  ------------------------------------ 
  End decomposition of the XC Energy 
  ------------------------------------ 

------------------------------------------------------------

------------------------------------------------------------------------------
  Final output of selected total energy values:

  The following output summarizes some interesting total energy values
  at the end of a run (AFTER all relaxation, molecular dynamics, etc.).

  | Total energy of the DFT / Hartree-Fock s.c.f. calculation      :       -5220287.108762013 eV
  | Final zero-broadening corrected energy (caution - metals only) :       -5220287.108762013 eV
  | For reference only, the value of 1 Hartree used in FHI-aims is :             27.211384500 eV
  | For reference only, the overall average (free atom contribution
  | + realspace contribution) of the electrostatic potential after
  | s.c.f. convergence is                                          :            -16.530087795 eV

  Before relying on these values, please be sure to understand exactly which
  total energy value is referred to by a given number. Different objects may
  all carry the same name 'total energy'. Definitions:

  Total energy of the DFT / Hartree-Fock s.c.f. calculation:
  | Note that this energy does not include ANY quantities calculated after the
  | s.c.f. cycle, in particular not ANY RPA, MP2, etc. many-body perturbation terms.

  Final zero-broadening corrected energy:
  | For metallic systems only, a broadening of the occupation numbers at the Fermi
  | level can be extrapolated back to zero broadening by an electron-gas inspired
  | formula. For all systems that are not real metals, this value can be
  | meaningless and should be avoided.

------------------------------------------------------------------------------
  Methods described in the following list of references were used in this FHI-aims run.
  If you publish the results, please make sure to cite these reference if they apply.
  FHI-aims is an academic code, and for our developers (often, Ph.D. students
  and postdocs), scientific credit in the community is essential.
  Thank you for helping us!

  For any use of FHI-aims, please cite:

    Volker Blum, Ralf Gehrke, Felix Hanke, Paula Havu, Ville Havu,
    Xinguo Ren, Karsten Reuter, and Matthias Scheffler
    'Ab initio molecular simulations with numeric atom-centered orbitals'
    Computer Physics Communications 180, 2175-2196 (2009)
    http://doi.org/10.1016/j.cpc.2009.06.022


  The provided symmetry information was generated with SPGlib:

    Atsushi Togo, Yusuke Seto, Dimitar Pashov
    SPGlib 1.7.3 obtained from http://spglib.sourceforge.net
    Copyright (C) 2008 Atsushi Togo


  The ELSI infrastructure was used in your run to solve the Kohn-Sham electronic structure.
  Please check out http://elsi-interchange.org to learn more.
  If scalability is important for your project, please acknowledge ELSI by citing:

    V. W-z. Yu, F. Corsetti, A. Garcia, W. P. Huhn, M. Jacquelin, W. Jia,
    B. Lange, L. Lin, J. Lu, W. Mi, A. Seifitokaldani, A. Vazquez-Mayagoitia,
    C. Yang, H. Yang, and V. Blum
    'ELSI: A unified software interface for Kohn-Sham electronic structure solvers'
    Computer Physics Communications 222, 267-285 (2018).
    http://doi.org/10.1016/j.cpc.2017.09.007


  For the real-space grid partitioning and parallelization used in this calculation, please cite:

    Ville Havu, Volker Blum, Paula Havu, and Matthias Scheffler,
    'Efficient O(N) integration for all-electron electronic structure calculation'
    'using numerically tabulated basis functions'
    Journal of Computational Physics 228, 8367-8379 (2009).
    http://doi.org/10.1016/j.jcp.2009.08.008

  Of course, there are many other important community references, e.g., those cited in the
  above references. Our list is limited to references that describe implementations in the
  FHI-aims code. The reason is purely practical (length of this list) - please credit others as well.

   One or more s.c.f. cycles took more than 50 s.c.f. iterations.
   It might be worth adjusting your convergence settings. For example,
   metals need a larger broadening and a smaller "charge_mix_param" value than semiconductors.

------------------------------------------------------------
          Leaving FHI-aims.
          Date     :  20221024, Time     :  151517.394

          Computational steps:
          | Number of self-consistency cycles          :           91
          | Number of SCF (re)initializations          :            1

          Detailed time accounting                     :  max(cpu_time)    wall_clock(cpu1)
          | Total time                                  :      972.186 s         979.760 s
          | Preparation time                            :        0.618 s           0.666 s
          | Boundary condition initalization            :        0.806 s           0.806 s
          | Grid partitioning                           :        1.508 s           1.508 s
          | Preloading free-atom quantities on grid     :        0.363 s           0.362 s
          | Free-atom superposition energy              :        0.040 s           0.041 s
          | Total time for integrations                 :       95.728 s          95.730 s
          | Total time for solution of K.-S. equations  :      510.327 s         510.318 s
          | Total time for density & force components   :      247.245 s         247.257 s
          | Total time for mixing & preconditioning     :       64.662 s          45.825 s
          | Total time for Hartree multipole update     :        1.705 s           1.706 s
          | Total time for Hartree multipole sum        :       49.538 s          49.540 s
          | Total time for total energy evaluation      :        0.246 s           0.236 s
          | Total time NSC force correction             :        2.067 s           2.068 s
          | Total time for scaled ZORA corrections      :        0.000 s           0.000 s

          Partial memory accounting:
          | Residual value for overall tracked memory usage across tasks:     0.000000 MB (should be 0.000000 MB)
          | Peak values for overall tracked memory usage:
          |   Minimum:      355.666 MB (on task   7 after allocating temp_ham_ovlp)
          |   Maximum:      364.842 MB (on task  16 after allocating temp_ham_ovlp)
          |   Average:      359.448 MB
          | Largest tracked array allocation:
          |   Minimum:       95.364 MB (overlap_matrix on task   0)
          |   Maximum:       95.364 MB (overlap_matrix on task   0)
          |   Average:       95.364 MB
          Note:  These values currently only include a subset of arrays which are explicitly tracked.
          The "true" memory usage will be greater.

          Have a nice day.
------------------------------------------------------------
