calculator: aims
length_unit: angstrom
nqpoint: 459    
npath: 9      
segment_nqpoint:
- 51
- 51
- 51
- 51
- 51
- 51
- 51
- 51
- 51
labels:
- [ 'G', 'X' ]
- [ 'X', 'P' ]
- [ 'P', 'N' ]
- [ 'N', 'G' ]
- [ 'G', 'M' ]
- [ 'M', 'S0' ]
- [ 'S0', 'X' ]
- [ 'X', 'G' ]
- [ 'G', 'M' ]
reciprocal_lattice:
- [  -0.00000000,   0.20152741,   0.02836919 ] # a*
- [   0.20152741,   0.00000000,   0.02836919 ] # b*
- [   0.20152741,   0.20152741,   0.00000000 ] # c*
natom: 17     
lattice:
- [    -2.481052130000000,     2.481052130000000,    17.624754820000000 ] # a
- [     2.481052130000000,    -2.481052130000000,    17.624754820000000 ] # b
- [     2.481052130000000,     2.481052130000000,   -17.624754820000000 ] # c
points:
- symbol: Ba # 1
  coordinates: [  0.432557470000000,  0.432557470000000,  0.000000000000000 ]
  mass: 137.327000
- symbol: Ba # 2
  coordinates: [  0.567442530000000,  0.567442530000000,  0.000000000000000 ]
  mass: 137.327000
- symbol: Ba # 3
  coordinates: [  0.300515740000000,  0.300515740000000,  0.000000000000000 ]
  mass: 137.327000
- symbol: Ba # 4
  coordinates: [  0.699484260000000,  0.699484260000000,  0.000000000000000 ]
  mass: 137.327000
- symbol: S  # 5
  coordinates: [  0.500000000000000,  0.000000000000000,  0.500000000000000 ]
  mass: 32.065000
- symbol: S  # 6
  coordinates: [  0.000000000000000,  0.500000000000000,  0.500000000000000 ]
  mass: 32.065000
- symbol: S  # 7
  coordinates: [  0.929325550000000,  0.929325550000000,  0.000000000000000 ]
  mass: 32.065000
- symbol: S  # 8
  coordinates: [  0.070674450000000,  0.070674450000000,  0.000000000000000 ]
  mass: 32.065000
- symbol: S  # 9
  coordinates: [  0.786248210000000,  0.786248210000000,  0.000000000000000 ]
  mass: 32.065000
- symbol: S  # 10
  coordinates: [  0.213751790000000,  0.213751790000000,  0.000000000000000 ]
  mass: 32.065000
- symbol: S  # 11
  coordinates: [  0.860797260000000,  0.360797260000000,  0.500000000000000 ]
  mass: 32.065000
- symbol: S  # 12
  coordinates: [  0.360797260000000,  0.860797260000000,  0.500000000000000 ]
  mass: 32.065000
- symbol: S  # 13
  coordinates: [  0.139202740000000,  0.639202740000000,  0.500000000000000 ]
  mass: 32.065000
- symbol: S  # 14
  coordinates: [  0.639202740000000,  0.139202740000000,  0.500000000000000 ]
  mass: 32.065000
- symbol: Zr # 15
  coordinates: [  0.000000000000000,  0.000000000000000,  0.000000000000000 ]
  mass: 91.224000
- symbol: Zr # 16
  coordinates: [  0.856629990000000,  0.856629990000000,  0.000000000000000 ]
  mass: 91.224000
- symbol: Zr # 17
  coordinates: [  0.143370010000000,  0.143370010000000,  0.000000000000000 ]
  mass: 91.224000

phonon:
- q-position: [    0.0000000,    0.0000000,    0.0000000 ]
  distance:    0.0000000
  band:
  - # 1
    frequency:   -0.0078324746
  - # 2
    frequency:   -0.0031387878
  - # 3
    frequency:   -0.0019236164
  - # 4
    frequency:    0.5710040438
  - # 5
    frequency:    0.5912879391
  - # 6
    frequency:    0.7161526841
  - # 7
    frequency:    0.7235875859
  - # 8
    frequency:    0.8632502269
  - # 9
    frequency:    0.8668195025
  - # 10
    frequency:    1.1992842272
  - # 11
    frequency:    1.2214581995
  - # 12
    frequency:    1.5392628700
  - # 13
    frequency:    1.5692965369
  - # 14
    frequency:    1.6829837359
  - # 15
    frequency:    1.7491127829
  - # 16
    frequency:    1.7605692519
  - # 17
    frequency:    1.8758818701
  - # 18
    frequency:    1.9169846065
  - # 19
    frequency:    2.1064931784
  - # 20
    frequency:    2.2409544272
  - # 21
    frequency:    2.3375103565
  - # 22
    frequency:    2.7153433783
  - # 23
    frequency:    2.7739580923
  - # 24
    frequency:    2.8999282651
  - # 25
    frequency:    2.9045028571
  - # 26
    frequency:    2.9077974553
  - # 27
    frequency:    2.9589215146
  - # 28
    frequency:    2.9690286560
  - # 29
    frequency:    3.0506208375
  - # 30
    frequency:    3.0555178432
  - # 31
    frequency:    3.0834191957
  - # 32
    frequency:    3.0908757996
  - # 33
    frequency:    3.3082936348
  - # 34
    frequency:    3.7711372484
  - # 35
    frequency:    3.7750754592
  - # 36
    frequency:    3.7816054954
  - # 37
    frequency:    3.8921627106
  - # 38
    frequency:    3.9603555906
  - # 39
    frequency:    4.4313429280
  - # 40
    frequency:    6.0248696109
  - # 41
    frequency:    6.4184890393
  - # 42
    frequency:    9.1837518270
  - # 43
    frequency:   10.4944587016
  - # 44
    frequency:   10.4953948594
  - # 45
    frequency:   10.5164188221
  - # 46
    frequency:   10.5203686947
  - # 47
    frequency:   10.5376790857
  - # 48
    frequency:   10.7004189274
  - # 49
    frequency:   10.7006516075
  - # 50
    frequency:   11.6425593976
  - # 51
    frequency:   12.1094057443

- q-position: [    0.0000000,    0.0000000,    0.0100000 ]
  distance:    0.0028500
  band:
  - # 1
    frequency:    0.0394227812
  - # 2
    frequency:    0.0978486277
  - # 3
    frequency:    0.1573458987
  - # 4
    frequency:    0.5762518632
  - # 5
    frequency:    0.6022569468
  - # 6
    frequency:    0.7284988229
  - # 7
    frequency:    0.7302670444
  - # 8
    frequency:    0.8639037354
  - # 9
    frequency:    0.8683674847
  - # 10
    frequency:    1.2066222768
  - # 11
    frequency:    1.2252003521
  - # 12
    frequency:    1.5533297227
  - # 13
    frequency:    1.5718487931
  - # 14
    frequency:    1.6756900178
  - # 15
    frequency:    1.7585810875
  - # 16
    frequency:    1.7597235248
  - # 17
    frequency:    1.8804043713
  - # 18
    frequency:    1.9275329576
  - # 19
    frequency:    2.1149519740
  - # 20
    frequency:    2.2483594061
  - # 21
    frequency:    2.3464364590
  - # 22
    frequency:    2.7181930204
  - # 23
    frequency:    2.7817105310
  - # 24
    frequency:    2.9043904661
  - # 25
    frequency:    2.9053719534
  - # 26
    frequency:    2.9080986923
  - # 27
    frequency:    2.9565601432
  - # 28
    frequency:    2.9645375655
  - # 29
    frequency:    3.0540239515
  - # 30
    frequency:    3.0629648850
  - # 31
    frequency:    3.0803277947
  - # 32
    frequency:    3.0873100170
  - # 33
    frequency:    3.3169358594
  - # 34
    frequency:    3.7378065913
  - # 35
    frequency:    3.7745522652
  - # 36
    frequency:    3.7773041935
  - # 37
    frequency:    3.9282970242
  - # 38
    frequency:    3.9628979716
  - # 39
    frequency:    4.4347975257
  - # 40
    frequency:    6.0241280110
  - # 41
    frequency:    6.4179308529
  - # 42
    frequency:    9.1834409190
  - # 43
    frequency:   10.4669769850
  - # 44
    frequency:   10.5165573968
  - # 45
    frequency:   10.5205351475
  - # 46
    frequency:   10.5239155645
  - # 47
    frequency:   10.5386937146
  - # 48
    frequency:   10.7005096254
  - # 49
    frequency:   10.7016758417
  - # 50
    frequency:   11.6426676810
  - # 51
    frequency:   12.1098374044

- q-position: [    0.0000000,    0.0000000,    0.0200000 ]
  distance:    0.0057001
  band:
  - # 1
    frequency:    0.0823970757
  - # 2
    frequency:    0.1934598391
  - # 3
    frequency:    0.3111308739
  - # 4
    frequency:    0.5916645661
  - # 5
    frequency:    0.6339677360
  - # 6
    frequency:    0.7425806477
  - # 7
    frequency:    0.7702086160
  - # 8
    frequency:    0.8658355764
  - # 9
    frequency:    0.8730473610
  - # 10
    frequency:    1.2282382503
  - # 11
    frequency:    1.2363291471
  - # 12
    frequency:    1.5792729915
  - # 13
    frequency:    1.5926348318
  - # 14
    frequency:    1.6583014938
  - # 15
    frequency:    1.7543649881
  - # 16
    frequency:    1.7911848301
  - # 17
    frequency:    1.8936368041
  - # 18
    frequency:    1.9547718512
  - # 19
    frequency:    2.1402924166
  - # 20
    frequency:    2.2699783414
  - # 21
    frequency:    2.3730186274
  - # 22
    frequency:    2.7268483508
  - # 23
    frequency:    2.8046508484
  - # 24
    frequency:    2.9079492257
  - # 25
    frequency:    2.9094037623
  - # 26
    frequency:    2.9165818494
  - # 27
    frequency:    2.9506442987
  - # 28
    frequency:    2.9546960062
  - # 29
    frequency:    3.0640563362
  - # 30
    frequency:    3.0686142851
  - # 31
    frequency:    3.0738176766
  - # 32
    frequency:    3.0902365188
  - # 33
    frequency:    3.3405536216
  - # 34
    frequency:    3.6715503844
  - # 35
    frequency:    3.7548412649
  - # 36
    frequency:    3.7936832655
  - # 37
    frequency:    3.9693708399
  - # 38
    frequency:    3.9928754314
  - # 39
    frequency:    4.4449219159
  - # 40
    frequency:    6.0219070634
  - # 41
    frequency:    6.4162603341
  - # 42
    frequency:    9.1825141437
  - # 43
    frequency:   10.4398586239
  - # 44
    frequency:   10.5169638812
  - # 45
    frequency:   10.5210206401
  - # 46
    frequency:   10.5415357600
  - # 47
    frequency:   10.5539785949
  - # 48
    frequency:   10.7007770229
  - # 49
    frequency:   10.7049623216
  - # 50
    frequency:   11.6430661632
  - # 51
    frequency:   12.1111939871

- q-position: [    0.0000000,    0.0000000,    0.0300000 ]
  distance:    0.0085501
  band:
  - # 1
    frequency:    0.1282500755
  - # 2
    frequency:    0.2844874716
  - # 3
    frequency:    0.4564606302
  - # 4
    frequency:    0.6164298994
  - # 5
    frequency:    0.6842238997
  - # 6
    frequency:    0.7640362589
  - # 7
    frequency:    0.8300161755
  - # 8
    frequency:    0.8691184240
  - # 9
    frequency:    0.8809831159
  - # 10
    frequency:    1.2546018423
  - # 11
    frequency:    1.2630260584
  - # 12
    frequency:    1.5909879432
  - # 13
    frequency:    1.6165766831
  - # 14
    frequency:    1.6730569931
  - # 15
    frequency:    1.7508218565
  - # 16
    frequency:    1.8422779906
  - # 17
    frequency:    1.9145947452
  - # 18
    frequency:    1.9911866763
  - # 19
    frequency:    2.1822638862
  - # 20
    frequency:    2.3042022161
  - # 21
    frequency:    2.4166578075
  - # 22
    frequency:    2.7415549243
  - # 23
    frequency:    2.8415788601
  - # 24
    frequency:    2.9121427894
  - # 25
    frequency:    2.9128000222
  - # 26
    frequency:    2.9227435236
  - # 27
    frequency:    2.9442881747
  - # 28
    frequency:    2.9556192370
  - # 29
    frequency:    3.0513168764
  - # 30
    frequency:    3.0687930841
  - # 31
    frequency:    3.0807224189
  - # 32
    frequency:    3.1175696199
  - # 33
    frequency:    3.3746514853
  - # 34
    frequency:    3.5999415844
  - # 35
    frequency:    3.7255068818
  - # 36
    frequency:    3.8195406281
  - # 37
    frequency:    3.9775755838
  - # 38
    frequency:    4.0620410973
  - # 39
    frequency:    4.4610591987
  - # 40
    frequency:    6.0182183293
  - # 41
    frequency:    6.4134895292
  - # 42
    frequency:    9.1809892353
  - # 43
    frequency:   10.4132375815
  - # 44
    frequency:   10.5176098210
  - # 45
    frequency:   10.5217846446
  - # 46
    frequency:   10.5461474884
  - # 47
    frequency:   10.5841693737
  - # 48
    frequency:   10.7012070318
  - # 49
    frequency:   10.7113719881
  - # 50
    frequency:   11.6439750778
  - # 51
    frequency:   12.1136572727

- q-position: [    0.0000000,    0.0000000,    0.0400000 ]
  distance:    0.0114001
  band:
  - # 1
    frequency:    0.1765071527
  - # 2
    frequency:    0.3686300634
  - # 3
    frequency:    0.5851739976
  - # 4
    frequency:    0.6495992105
  - # 5
    frequency:    0.7533624953
  - # 6
    frequency:    0.7903109064
  - # 7
    frequency:    0.8721322638
  - # 8
    frequency:    0.8924270115
  - # 9
    frequency:    0.9046131015
  - # 10
    frequency:    1.2797359291
  - # 11
    frequency:    1.3093768234
  - # 12
    frequency:    1.5914617735
  - # 13
    frequency:    1.6062680015
  - # 14
    frequency:    1.7303469130
  - # 15
    frequency:    1.7722723433
  - # 16
    frequency:    1.9107458428
  - # 17
    frequency:    1.9417462259
  - # 18
    frequency:    2.0314303659
  - # 19
    frequency:    2.2398769980
  - # 20
    frequency:    2.3489763674
  - # 21
    frequency:    2.4763209853
  - # 22
    frequency:    2.7624153604
  - # 23
    frequency:    2.8881116953
  - # 24
    frequency:    2.9070543436
  - # 25
    frequency:    2.9177849104
  - # 26
    frequency:    2.9237947048
  - # 27
    frequency:    2.9356021544
  - # 28
    frequency:    2.9875874036
  - # 29
    frequency:    3.0280761157
  - # 30
    frequency:    3.0691799486
  - # 31
    frequency:    3.1039289707
  - # 32
    frequency:    3.1523449857
  - # 33
    frequency:    3.4155678474
  - # 34
    frequency:    3.5277861907
  - # 35
    frequency:    3.6894389275
  - # 36
    frequency:    3.8531755063
  - # 37
    frequency:    3.9858961081
  - # 38
    frequency:    4.1317288020
  - # 39
    frequency:    4.4822877017
  - # 40
    frequency:    6.0130811009
  - # 41
    frequency:    6.4096382694
  - # 42
    frequency:    9.1788953818
  - # 43
    frequency:   10.3867770934
  - # 44
    frequency:   10.5184456365
  - # 45
    frequency:   10.5227629033
  - # 46
    frequency:   10.5520115236
  - # 47
    frequency:   10.6123720839
  - # 48
    frequency:   10.7017761665
  - # 49
    frequency:   10.7230923714
  - # 50
    frequency:   11.6457585207
  - # 51
    frequency:   12.1175199065

- q-position: [    0.0000000,    0.0000000,    0.0500000 ]
  distance:    0.0142501
  band:
  - # 1
    frequency:    0.2260503983
  - # 2
    frequency:    0.4438988722
  - # 3
    frequency:    0.6868816822
  - # 4
    frequency:    0.6901740295
  - # 5
    frequency:    0.8185539947
  - # 6
    frequency:    0.8430206826
  - # 7
    frequency:    0.8791757324
  - # 8
    frequency:    0.9077687663
  - # 9
    frequency:    0.9853201388
  - # 10
    frequency:    1.3114784286
  - # 11
    frequency:    1.3653660252
  - # 12
    frequency:    1.5621519996
  - # 13
    frequency:    1.6243642129
  - # 14
    frequency:    1.7322681799
  - # 15
    frequency:    1.8701965237
  - # 16
    frequency:    1.9726864849
  - # 17
    frequency:    1.9937049123
  - # 18
    frequency:    2.0721867417
  - # 19
    frequency:    2.3099741342
  - # 20
    frequency:    2.4031367741
  - # 21
    frequency:    2.5504715989
  - # 22
    frequency:    2.7886358441
  - # 23
    frequency:    2.8874784077
  - # 24
    frequency:    2.9201052283
  - # 25
    frequency:    2.9244254874
  - # 26
    frequency:    2.9301586660
  - # 27
    frequency:    2.9618330889
  - # 28
    frequency:    3.0036220118
  - # 29
    frequency:    3.0334640423
  - # 30
    frequency:    3.0774272892
  - # 31
    frequency:    3.1353876699
  - # 32
    frequency:    3.1918319629
  - # 33
    frequency:    3.4575695464
  - # 34
    frequency:    3.4610277804
  - # 35
    frequency:    3.6490288564
  - # 36
    frequency:    3.8929272568
  - # 37
    frequency:    3.9935965834
  - # 38
    frequency:    4.2008387931
  - # 39
    frequency:    4.5075960678
  - # 40
    frequency:    6.0065224451
  - # 41
    frequency:    6.4047338105
  - # 42
    frequency:    9.1762726792
  - # 43
    frequency:   10.3601733079
  - # 44
    frequency:   10.5193980520
  - # 45
    frequency:   10.5238717412
  - # 46
    frequency:   10.5585930155
  - # 47
    frequency:   10.6344816246
  - # 48
    frequency:   10.7024514920
  - # 49
    frequency:   10.7440030721
  - # 50
    frequency:   11.6489173990
  - # 51
    frequency:   12.1231692402

- q-position: [    0.0000000,    0.0000000,    0.0600000 ]
  distance:    0.0171002
  band:
  - # 1
    frequency:    0.2758104536
  - # 2
    frequency:    0.5092708832
  - # 3
    frequency:    0.7366994649
  - # 4
    frequency:    0.7624522849
  - # 5
    frequency:    0.8461683410
  - # 6
    frequency:    0.8796800912
  - # 7
    frequency:    0.9273377391
  - # 8
    frequency:    0.9552300329
  - # 9
    frequency:    1.0691939830
  - # 10
    frequency:    1.3495804052
  - # 11
    frequency:    1.4285162109
  - # 12
    frequency:    1.5343688077
  - # 13
    frequency:    1.6445480972
  - # 14
    frequency:    1.7274458871
  - # 15
    frequency:    1.9881537056
  - # 16
    frequency:    2.0059933280
  - # 17
    frequency:    2.0859469949
  - # 18
    frequency:    2.1113414331
  - # 19
    frequency:    2.3837378962
  - # 20
    frequency:    2.4694761913
  - # 21
    frequency:    2.6368425412
  - # 22
    frequency:    2.8165020417
  - # 23
    frequency:    2.8693849961
  - # 24
    frequency:    2.9285291596
  - # 25
    frequency:    2.9339426552
  - # 26
    frequency:    2.9369180705
  - # 27
    frequency:    2.9821780584
  - # 28
    frequency:    3.0238966834
  - # 29
    frequency:    3.0760519600
  - # 30
    frequency:    3.1091738302
  - # 31
    frequency:    3.1787840281
  - # 32
    frequency:    3.2346873969
  - # 33
    frequency:    3.3926778733
  - # 34
    frequency:    3.5096281878
  - # 35
    frequency:    3.6066737140
  - # 36
    frequency:    3.9373741925
  - # 37
    frequency:    4.0005158843
  - # 38
    frequency:    4.2689261191
  - # 39
    frequency:    4.5360216070
  - # 40
    frequency:    5.9985772875
  - # 41
    frequency:    6.3988103479
  - # 42
    frequency:    9.1731713835
  - # 43
    frequency:   10.3331738876
  - # 44
    frequency:   10.5203670869
  - # 45
    frequency:   10.5250135955
  - # 46
    frequency:   10.5652038046
  - # 47
    frequency:   10.6472307865
  - # 48
    frequency:   10.7031904736
  - # 49
    frequency:   10.7770044780
  - # 50
    frequency:   11.6540745252
  - # 51
    frequency:   12.1310637858

- q-position: [    0.0000000,    0.0000000,    0.0700000 ]
  distance:    0.0199502
  band:
  - # 1
    frequency:    0.3249089348
  - # 2
    frequency:    0.5652333263
  - # 3
    frequency:    0.7868116308
  - # 4
    frequency:    0.8222286365
  - # 5
    frequency:    0.8715533231
  - # 6
    frequency:    0.8857897525
  - # 7
    frequency:    0.9508434213
  - # 8
    frequency:    1.0634160599
  - # 9
    frequency:    1.1522349397
  - # 10
    frequency:    1.3936807002
  - # 11
    frequency:    1.4854267706
  - # 12
    frequency:    1.5211981701
  - # 13
    frequency:    1.6661298407
  - # 14
    frequency:    1.7221125516
  - # 15
    frequency:    2.0391196578
  - # 16
    frequency:    2.1134971209
  - # 17
    frequency:    2.1498498644
  - # 18
    frequency:    2.1819849813
  - # 19
    frequency:    2.4467602648
  - # 20
    frequency:    2.5532851236
  - # 21
    frequency:    2.7315244310
  - # 22
    frequency:    2.8356633520
  - # 23
    frequency:    2.8591752937
  - # 24
    frequency:    2.9403080817
  - # 25
    frequency:    2.9448091844
  - # 26
    frequency:    2.9550090733
  - # 27
    frequency:    2.9691045941
  - # 28
    frequency:    3.0855648853
  - # 29
    frequency:    3.1008397714
  - # 30
    frequency:    3.1795166671
  - # 31
    frequency:    3.2393097716
  - # 32
    frequency:    3.2743464765
  - # 33
    frequency:    3.3436344088
  - # 34
    frequency:    3.5553727894
  - # 35
    frequency:    3.5707116270
  - # 36
    frequency:    3.9853914796
  - # 37
    frequency:    4.0067789642
  - # 38
    frequency:    4.3357581417
  - # 39
    frequency:    4.5667296589
  - # 40
    frequency:    5.9892885559
  - # 41
    frequency:    6.3919084220
  - # 42
    frequency:    9.1696509783
  - # 43
    frequency:   10.3055821714
  - # 44
    frequency:   10.5212226497
  - # 45
    frequency:   10.5260837776
  - # 46
    frequency:   10.5710440148
  - # 47
    frequency:   10.6512320246
  - # 48
    frequency:   10.7039406706
  - # 49
    frequency:   10.8209886575
  - # 50
    frequency:   11.6619476050
  - # 51
    frequency:   12.1417023282

- q-position: [    0.0000000,    0.0000000,    0.0800000 ]
  distance:    0.0228002
  band:
  - # 1
    frequency:    0.3726178434
  - # 2
    frequency:    0.6134805549
  - # 3
    frequency:    0.8375224572
  - # 4
    frequency:    0.8722576006
  - # 5
    frequency:    0.8917464938
  - # 6
    frequency:    0.8945710162
  - # 7
    frequency:    0.9769752947
  - # 8
    frequency:    1.1644049263
  - # 9
    frequency:    1.2312188616
  - # 10
    frequency:    1.4431476432
  - # 11
    frequency:    1.4764758753
  - # 12
    frequency:    1.5816542358
  - # 13
    frequency:    1.6884748858
  - # 14
    frequency:    1.7172855699
  - # 15
    frequency:    2.0705604065
  - # 16
    frequency:    2.1735921529
  - # 17
    frequency:    2.2556956382
  - # 18
    frequency:    2.2733916241
  - # 19
    frequency:    2.4935717454
  - # 20
    frequency:    2.6429720460
  - # 21
    frequency:    2.8253732830
  - # 22
    frequency:    2.8344204263
  - # 23
    frequency:    2.8701437885
  - # 24
    frequency:    2.9606627829
  - # 25
    frequency:    2.9693121934
  - # 26
    frequency:    2.9742542565
  - # 27
    frequency:    2.9753798072
  - # 28
    frequency:    3.1295095274
  - # 29
    frequency:    3.1409259606
  - # 30
    frequency:    3.2672441985
  - # 31
    frequency:    3.2707444120
  - # 32
    frequency:    3.3164831965
  - # 33
    frequency:    3.3574691765
  - # 34
    frequency:    3.5289100526
  - # 35
    frequency:    3.6163994369
  - # 36
    frequency:    4.0126358163
  - # 37
    frequency:    4.0361305724
  - # 38
    frequency:    4.4011914939
  - # 39
    frequency:    4.5990424223
  - # 40
    frequency:    5.9787074148
  - # 41
    frequency:    6.3840742393
  - # 42
    frequency:    9.1657790764
  - # 43
    frequency:   10.2772543886
  - # 44
    frequency:   10.5218017254
  - # 45
    frequency:   10.5269775153
  - # 46
    frequency:   10.5752454491
  - # 47
    frequency:   10.6485010047
  - # 48
    frequency:   10.7046392295
  - # 49
    frequency:   10.8733558573
  - # 50
    frequency:   11.6733065632
  - # 51
    frequency:   12.1555869284

- q-position: [    0.0000000,    0.0000000,    0.0900000 ]
  distance:    0.0256503
  band:
  - # 1
    frequency:    0.4182927238
  - # 2
    frequency:    0.6559728789
  - # 3
    frequency:    0.8859298498
  - # 4
    frequency:    0.8975518374
  - # 5
    frequency:    0.9154723549
  - # 6
    frequency:    0.9161858343
  - # 7
    frequency:    1.0038997196
  - # 8
    frequency:    1.2537417190
  - # 9
    frequency:    1.3020159720
  - # 10
    frequency:    1.4594324003
  - # 11
    frequency:    1.4969369569
  - # 12
    frequency:    1.6561721507
  - # 13
    frequency:    1.7110348555
  - # 14
    frequency:    1.7163328448
  - # 15
    frequency:    2.0992862110
  - # 16
    frequency:    2.1994462244
  - # 17
    frequency:    2.3491628273
  - # 18
    frequency:    2.3947062177
  - # 19
    frequency:    2.5259717299
  - # 20
    frequency:    2.7064333113
  - # 21
    frequency:    2.8125590343
  - # 22
    frequency:    2.9020609623
  - # 23
    frequency:    2.9286441852
  - # 24
    frequency:    2.9696549572
  - # 25
    frequency:    2.9912977371
  - # 26
    frequency:    3.0036102573
  - # 27
    frequency:    3.0371174068
  - # 28
    frequency:    3.1670145063
  - # 29
    frequency:    3.1906780640
  - # 30
    frequency:    3.2548745083
  - # 31
    frequency:    3.3676656884
  - # 32
    frequency:    3.3909121696
  - # 33
    frequency:    3.4139832153
  - # 34
    frequency:    3.5221903272
  - # 35
    frequency:    3.6724860003
  - # 36
    frequency:    4.0183937674
  - # 37
    frequency:    4.0889746491
  - # 38
    frequency:    4.4651288000
  - # 39
    frequency:    4.6324371398
  - # 40
    frequency:    5.9668936308
  - # 41
    frequency:    6.3753589325
  - # 42
    frequency:    9.1616301811
  - # 43
    frequency:   10.2480940317
  - # 44
    frequency:   10.5219096988
  - # 45
    frequency:   10.5275937319
  - # 46
    frequency:   10.5769299874
  - # 47
    frequency:   10.6401989590
  - # 48
    frequency:   10.7052121715
  - # 49
    frequency:   10.9323201877
  - # 50
    frequency:   11.6889145914
  - # 51
    frequency:   12.1731826714

- q-position: [    0.0000000,    0.0000000,    0.1000000 ]
  distance:    0.0285003
  band:
  - # 1
    frequency:    0.4613247052
  - # 2
    frequency:    0.6942635189
  - # 3
    frequency:    0.9044235511
  - # 4
    frequency:    0.9274454578
  - # 5
    frequency:    0.9399457995
  - # 6
    frequency:    0.9519951810
  - # 7
    frequency:    1.0300330224
  - # 8
    frequency:    1.3298143714
  - # 9
    frequency:    1.3538852443
  - # 10
    frequency:    1.4569129380
  - # 11
    frequency:    1.5534843247
  - # 12
    frequency:    1.6937332985
  - # 13
    frequency:    1.7334247082
  - # 14
    frequency:    1.7562331160
  - # 15
    frequency:    2.1247236099
  - # 16
    frequency:    2.2189569573
  - # 17
    frequency:    2.3988207834
  - # 18
    frequency:    2.5348615361
  - # 19
    frequency:    2.5466882304
  - # 20
    frequency:    2.7346872605
  - # 21
    frequency:    2.7731254695
  - # 22
    frequency:    2.9684819266
  - # 23
    frequency:    2.9830614117
  - # 24
    frequency:    2.9999875193
  - # 25
    frequency:    3.0277313239
  - # 26
    frequency:    3.0401650340
  - # 27
    frequency:    3.1439217544
  - # 28
    frequency:    3.2147852551
  - # 29
    frequency:    3.2333901784
  - # 30
    frequency:    3.2674153541
  - # 31
    frequency:    3.4242099114
  - # 32
    frequency:    3.4786227723
  - # 33
    frequency:    3.4829592899
  - # 34
    frequency:    3.5860862054
  - # 35
    frequency:    3.7315415430
  - # 36
    frequency:    4.0244075610
  - # 37
    frequency:    4.1434971280
  - # 38
    frequency:    4.5275012444
  - # 39
    frequency:    4.6665314554
  - # 40
    frequency:    5.9539161266
  - # 41
    frequency:    6.3658177941
  - # 42
    frequency:    9.1572843330
  - # 43
    frequency:   10.2180455633
  - # 44
    frequency:   10.5213308804
  - # 45
    frequency:   10.5278304161
  - # 46
    frequency:   10.5752786659
  - # 47
    frequency:   10.6267271572
  - # 48
    frequency:   10.7055735369
  - # 49
    frequency:   10.9968643575
  - # 50
    frequency:   11.7094576510
  - # 51
    frequency:   12.1948785316

- q-position: [    0.0000000,    0.0000000,    0.1100000 ]
  distance:    0.0313503
  band:
  - # 1
    frequency:    0.5011191005
  - # 2
    frequency:    0.7293562037
  - # 3
    frequency:    0.9120574795
  - # 4
    frequency:    0.9520902897
  - # 5
    frequency:    0.9753116687
  - # 6
    frequency:    0.9831155464
  - # 7
    frequency:    1.0543118533
  - # 8
    frequency:    1.3684567579
  - # 9
    frequency:    1.3925456476
  - # 10
    frequency:    1.4873628795
  - # 11
    frequency:    1.6105467833
  - # 12
    frequency:    1.6925911203
  - # 13
    frequency:    1.7556272929
  - # 14
    frequency:    1.8366463418
  - # 15
    frequency:    2.1464497121
  - # 16
    frequency:    2.2331611332
  - # 17
    frequency:    2.4196673755
  - # 18
    frequency:    2.5526620312
  - # 19
    frequency:    2.6725625008
  - # 20
    frequency:    2.7193715194
  - # 21
    frequency:    2.7557701141
  - # 22
    frequency:    2.9856879009
  - # 23
    frequency:    2.9961872045
  - # 24
    frequency:    3.0377885367
  - # 25
    frequency:    3.0661656141
  - # 26
    frequency:    3.1743603709
  - # 27
    frequency:    3.2613133277
  - # 28
    frequency:    3.2697968450
  - # 29
    frequency:    3.2750383559
  - # 30
    frequency:    3.3085075357
  - # 31
    frequency:    3.4524657469
  - # 32
    frequency:    3.5628226722
  - # 33
    frequency:    3.5978761598
  - # 34
    frequency:    3.6957194383
  - # 35
    frequency:    3.7941076270
  - # 36
    frequency:    4.0311206366
  - # 37
    frequency:    4.1994334729
  - # 38
    frequency:    4.5882614138
  - # 39
    frequency:    4.7010677247
  - # 40
    frequency:    5.9398538058
  - # 41
    frequency:    6.3555095186
  - # 42
    frequency:    9.1528256728
  - # 43
    frequency:   10.1870884559
  - # 44
    frequency:   10.5198473265
  - # 45
    frequency:   10.5275723242
  - # 46
    frequency:   10.5695997611
  - # 47
    frequency:   10.6081747266
  - # 48
    frequency:   10.7056245232
  - # 49
    frequency:   11.0663369494
  - # 50
    frequency:   11.7354733723
  - # 51
    frequency:   12.2209544767

- q-position: [    0.0000000,    0.0000000,    0.1200000 ]
  distance:    0.0342003
  band:
  - # 1
    frequency:    0.5371022025
  - # 2
    frequency:    0.7618165381
  - # 3
    frequency:    0.9208254275
  - # 4
    frequency:    0.9713680345
  - # 5
    frequency:    1.0093352485
  - # 6
    frequency:    1.0104947070
  - # 7
    frequency:    1.0761201225
  - # 8
    frequency:    1.3597594203
  - # 9
    frequency:    1.4421568185
  - # 10
    frequency:    1.5369995997
  - # 11
    frequency:    1.6647389596
  - # 12
    frequency:    1.6878071816
  - # 13
    frequency:    1.7785233660
  - # 14
    frequency:    1.9210262846
  - # 15
    frequency:    2.1636920840
  - # 16
    frequency:    2.2429379595
  - # 17
    frequency:    2.4183086539
  - # 18
    frequency:    2.5524945958
  - # 19
    frequency:    2.6561246289
  - # 20
    frequency:    2.7366674451
  - # 21
    frequency:    2.8450064295
  - # 22
    frequency:    2.9743553448
  - # 23
    frequency:    2.9945381959
  - # 24
    frequency:    3.0410803606
  - # 25
    frequency:    3.1788767976
  - # 26
    frequency:    3.2711253610
  - # 27
    frequency:    3.3030840915
  - # 28
    frequency:    3.3634226171
  - # 29
    frequency:    3.3637463073
  - # 30
    frequency:    3.4055271662
  - # 31
    frequency:    3.5083077600
  - # 32
    frequency:    3.6541252816
  - # 33
    frequency:    3.7229393413
  - # 34
    frequency:    3.8192070805
  - # 35
    frequency:    3.8615419795
  - # 36
    frequency:    4.0392295382
  - # 37
    frequency:    4.2566696687
  - # 38
    frequency:    4.6473811585
  - # 39
    frequency:    4.7359033872
  - # 40
    frequency:    5.9247967731
  - # 41
    frequency:    6.3444954982
  - # 42
    frequency:    9.1483409466
  - # 43
    frequency:   10.1552319091
  - # 44
    frequency:   10.5172548013