mesh: [     1,     1,     1 ]
nqpoint: 1      
reciprocal_lattice:
- [  -0.00000000,   0.20152741,   0.02836919 ] # a*
- [   0.20152741,   0.00000000,   0.02836919 ] # b*
- [   0.20152741,   0.20152741,   0.00000000 ] # c*
natom:   17     
lattice:
- [    -2.481052130000000,     2.481052130000000,    17.624754820000000 ] # a
- [     2.481052130000000,    -2.481052130000000,    17.624754820000000 ] # b
- [     2.481052130000000,     2.481052130000000,   -17.624754820000000 ] # c
points:
- symbol: Ba # 1
  coordinates: [  0.432557470000000,  0.432557470000000,  0.000000000000000 ]
  mass: 137.327000
- symbol: Ba # 2
  coordinates: [  0.567442530000000,  0.567442530000000,  0.000000000000000 ]
  mass: 137.327000
- symbol: Ba # 3
  coordinates: [  0.300515740000000,  0.300515740000000,  0.000000000000000 ]
  mass: 137.327000
- symbol: Ba # 4
  coordinates: [  0.699484260000000,  0.699484260000000,  0.000000000000000 ]
  mass: 137.327000
- symbol: S  # 5
  coordinates: [  0.500000000000000,  0.000000000000000,  0.500000000000000 ]
  mass: 32.065000
- symbol: S  # 6
  coordinates: [  0.000000000000000,  0.500000000000000,  0.500000000000000 ]
  mass: 32.065000
- symbol: S  # 7
  coordinates: [  0.929325550000000,  0.929325550000000,  0.000000000000000 ]
  mass: 32.065000
- symbol: S  # 8
  coordinates: [  0.070674450000000,  0.070674450000000,  0.000000000000000 ]
  mass: 32.065000
- symbol: S  # 9
  coordinates: [  0.786248210000000,  0.786248210000000,  0.000000000000000 ]
  mass: 32.065000
- symbol: S  # 10
  coordinates: [  0.213751790000000,  0.213751790000000,  0.000000000000000 ]
  mass: 32.065000
- symbol: S  # 11
  coordinates: [  0.860797260000000,  0.360797260000000,  0.500000000000000 ]
  mass: 32.065000
- symbol: S  # 12
  coordinates: [  0.360797260000000,  0.860797260000000,  0.500000000000000 ]
  mass: 32.065000
- symbol: S  # 13
  coordinates: [  0.139202740000000,  0.639202740000000,  0.500000000000000 ]
  mass: 32.065000
- symbol: S  # 14
  coordinates: [  0.639202740000000,  0.139202740000000,  0.500000000000000 ]
  mass: 32.065000
- symbol: Zr # 15
  coordinates: [  0.000000000000000,  0.000000000000000,  0.000000000000000 ]
  mass: 91.224000
- symbol: Zr # 16
  coordinates: [  0.856629990000000,  0.856629990000000,  0.000000000000000 ]
  mass: 91.224000
- symbol: Zr # 17
  coordinates: [  0.143370010000000,  0.143370010000000,  0.000000000000000 ]
  mass: 91.224000

phonon:
- q-position: [    0.0000000,    0.0000000,    0.0000000 ]
  distance_from_gamma:  0.000000000
  weight: 1    
  band:
  - # 1
    frequency:    -0.2212695308
    eigenvector:
    - # atom 1
      - [ -0.02579700286141,  0.00000000000000 ]
      - [ -0.02579700286142,  0.00000000000000 ]
      - [  0.29155194097226,  0.00000000000000 ]
    - # atom 2
      - [ -0.02579700286142,  0.00000000000000 ]
      - [ -0.02579700286143,  0.00000000000000 ]
      - [  0.29155194097226,  0.00000000000000 ]
    - # atom 3
      - [ -0.03964500794029,  0.00000000000000 ]
      - [ -0.03964500794033,  0.00000000000000 ]
      - [  0.35369710847891,  0.00000000000000 ]
    - # atom 4
      - [ -0.03964500794030,  0.00000000000000 ]
      - [ -0.03964500794033,  0.00000000000000 ]
      - [  0.35369710847891,  0.00000000000000 ]
    - # atom 5
      - [ -0.01069795919017,  0.00000000000000 ]
      - [ -0.01358354342585,  0.00000000000000 ]
      - [  0.15286389827512,  0.00000000000000 ]
    - # atom 6
      - [ -0.01358354342584,  0.00000000000000 ]
      - [ -0.01069795919017,  0.00000000000000 ]
      - [  0.15286389827512,  0.00000000000000 ]
    - # atom 7
      - [ -0.01787973480941,  0.00000000000000 ]
      - [ -0.01787973480943,  0.00000000000000 ]
      - [  0.17026625876351,  0.00000000000000 ]
    - # atom 8
      - [ -0.01787973480941,  0.00000000000000 ]
      - [ -0.01787973480943,  0.00000000000000 ]
      - [  0.17026625876351,  0.00000000000000 ]
    - # atom 9
      - [ -0.01866597802156,  0.00000000000000 ]
      - [ -0.01866597802158,  0.00000000000000 ]
      - [  0.17284770620285,  0.00000000000000 ]
    - # atom 10
      - [ -0.01866597802156,  0.00000000000000 ]
      - [ -0.01866597802157,  0.00000000000000 ]
      - [  0.17284770620285,  0.00000000000000 ]
    - # atom 11
      - [ -0.01827432539375,  0.00000000000000 ]
      - [ -0.01635204569980,  0.00000000000000 ]
      - [  0.16627041358508,  0.00000000000000 ]
    - # atom 12
      - [ -0.01635204569978,  0.00000000000000 ]
      - [ -0.01827432539376,  0.00000000000000 ]
      - [  0.16627041358508,  0.00000000000000 ]
    - # atom 13
      - [ -0.01827432539375,  0.00000000000000 ]
      - [ -0.01635204569980,  0.00000000000000 ]
      - [  0.16627041358508,  0.00000000000000 ]
    - # atom 14
      - [ -0.01635204569979,  0.00000000000000 ]
      - [ -0.01827432539377,  0.00000000000000 ]
      - [  0.16627041358508,  0.00000000000000 ]
    - # atom 15
      - [ -0.02205874839132,  0.00000000000000 ]
      - [ -0.02205874839134,  0.00000000000000 ]
      - [  0.32208161614958,  0.00000000000000 ]
    - # atom 16
      - [ -0.03283768421185,  0.00000000000000 ]
      - [ -0.03283768421188,  0.00000000000000 ]
      - [  0.30090870763109,  0.00000000000000 ]
    - # atom 17
      - [ -0.03283768421186,  0.00000000000000 ]
      - [ -0.03283768421189,  0.00000000000000 ]
      - [  0.30090870763109,  0.00000000000000 ]
  - # 2
    frequency:    -0.1268275713
    eigenvector:
    - # atom 1
      - [ -0.28143145678145,  0.00000000000000 ]
      - [ -0.28143145678137,  0.00000000000000 ]
      - [ -0.04376043411400,  0.00000000000000 ]
    - # atom 2
      - [ -0.28143145678144,  0.00000000000000 ]
      - [ -0.28143145678136,  0.00000000000000 ]
      - [ -0.04376043411400,  0.00000000000000 ]
    - # atom 3
      - [ -0.22859765387333,  0.00000000000000 ]
      - [ -0.22859765387328,  0.00000000000000 ]
      - [ -0.04697956967875,  0.00000000000000 ]
    - # atom 4
      - [ -0.22859765387334,  0.00000000000000 ]
      - [ -0.22859765387325,  0.00000000000000 ]
      - [ -0.04697956967875,  0.00000000000000 ]
    - # atom 5
      - [ -0.09916605885807,  0.00000000000000 ]
      - [ -0.11403769266723,  0.00000000000000 ]
      - [ -0.02287767423995,  0.00000000000000 ]
    - # atom 6
      - [ -0.11403769266726,  0.00000000000000 ]
      - [ -0.09916605885804,  0.00000000000000 ]
      - [ -0.02287767423995,  0.00000000000000 ]
    - # atom 7
      - [ -0.09747587781224,  0.00000000000000 ]
      - [ -0.09747587781221,  0.00000000000000 ]
      - [ -0.02329638974870,  0.00000000000000 ]
    - # atom 8
      - [ -0.09747587781224,  0.00000000000000 ]
      - [ -0.09747587781221,  0.00000000000000 ]
      - [ -0.02329638974870,  0.00000000000000 ]
    - # atom 9
      - [ -0.10059294046231,  0.00000000000000 ]
      - [ -0.10059294046229,  0.00000000000000 ]
      - [ -0.02368901014594,  0.00000000000000 ]
    - # atom 10
      - [ -0.10059294046231,  0.00000000000000 ]
      - [ -0.10059294046229,  0.00000000000000 ]
      - [ -0.02368901014594,  0.00000000000000 ]
    - # atom 11
      - [ -0.10789082542677,  0.00000000000000 ]
      - [ -0.09799823416144,  0.00000000000000 ]
      - [ -0.02390963756919,  0.00000000000000 ]
    - # atom 12
      - [ -0.09799823416146,  0.00000000000000 ]
      - [ -0.10789082542674,  0.00000000000000 ]
      - [ -0.02390963756919,  0.00000000000000 ]
    - # atom 13
      - [ -0.10789082542677,  0.00000000000000 ]
      - [ -0.09799823416143,  0.00000000000000 ]
      - [ -0.02390963756919,  0.00000000000000 ]
    - # atom 14
      - [ -0.09799823416146,  0.00000000000000 ]
      - [ -0.10789082542674,  0.00000000000000 ]
      - [ -0.02390963756919,  0.00000000000000 ]
    - # atom 15
      - [ -0.21174387978761,  0.00000000000000 ]
      - [ -0.21174387978756,  0.00000000000000 ]
      - [ -0.03999929954300,  0.00000000000000 ]
    - # atom 16
      - [ -0.19798330243213,  0.00000000000000 ]
      - [ -0.19798330243209,  0.00000000000000 ]
      - [ -0.03985419873813,  0.00000000000000 ]
    - # atom 17
      - [ -0.19798330243214,  0.00000000000000 ]
      - [ -0.19798330243207,  0.00000000000000 ]
      - [ -0.03985419873813,  0.00000000000000 ]
  - # 3
    frequency:    -0.0986469790
    eigenvector:
    - # atom 1
      - [  0.27175282045836,  0.00000000000000 ]
      - [ -0.27175282045842,  0.00000000000000 ]
      - [ -0.00000000000002,  0.00000000000000 ]
    - # atom 2
      - [  0.27175282045837,  0.00000000000000 ]
      - [ -0.27175282045844,  0.00000000000000 ]
      - [ -0.00000000000002,  0.00000000000000 ]
    - # atom 3
      - [  0.24229498332881,  0.00000000000000 ]
      - [ -0.24229498332889,  0.00000000000000 ]
      - [ -0.00000000000003,  0.00000000000000 ]
    - # atom 4
      - [  0.24229498332883,  0.00000000000000 ]
      - [ -0.24229498332888,  0.00000000000000 ]
      - [ -0.00000000000003,  0.00000000000000 ]
    - # atom 5
      - [  0.10753213062147,  0.00000000000000 ]
      - [ -0.11702717093711,  0.00000000000000 ]
      - [  0.00337347790154,  0.00000000000000 ]
    - # atom 6
      - [  0.11702717093708,  0.00000000000000 ]
      - [ -0.10753213062149,  0.00000000000000 ]
      - [ -0.00337347790156,  0.00000000000000 ]
    - # atom 7
      - [  0.09789580765833,  0.00000000000000 ]
      - [ -0.09789580765836,  0.00000000000000 ]
      - [ -0.00000000000001,  0.00000000000000 ]
    - # atom 8
      - [  0.09789580765833,  0.00000000000000 ]
      - [ -0.09789580765836,  0.00000000000000 ]
      - [ -0.00000000000001,  0.00000000000000 ]
    - # atom 9
      - [  0.09679068520629,  0.00000000000000 ]
      - [ -0.09679068520632,  0.00000000000000 ]
      - [ -0.00000000000001,  0.00000000000000 ]
    - # atom 10
      - [  0.09679068520629,  0.00000000000000 ]
      - [ -0.09679068520632,  0.00000000000000 ]
      - [ -0.00000000000001,  0.00000000000000 ]
    - # atom 11
      - [  0.11101529480262,  0.00000000000000 ]
      - [ -0.11396219284270,  0.00000000000000 ]
      - [ -0.00089339111959,  0.00000000000000 ]
    - # atom 12
      - [  0.11396219284266,  0.00000000000000 ]
      - [ -0.11101529480265,  0.00000000000000 ]
      - [  0.00089339111957,  0.00000000000000 ]
    - # atom 13
      - [  0.11101529480262,  0.00000000000000 ]
      - [ -0.11396219284269,  0.00000000000000 ]
      - [ -0.00089339111959,  0.00000000000000 ]
    - # atom 14
      - [  0.11396219284267,  0.00000000000000 ]
      - [ -0.11101529480265,  0.00000000000000 ]
      - [  0.00089339111957,  0.00000000000000 ]
    - # atom 15
      - [  0.21546244014077,  0.00000000000000 ]
      - [ -0.21546244014083,  0.00000000000000 ]
      - [ -0.00000000000002,  0.00000000000000 ]
    - # atom 16
      - [  0.19321481268889,  0.00000000000000 ]
      - [ -0.19321481268895,  0.00000000000000 ]
      - [ -0.00000000000002,  0.00000000000000 ]
    - # atom 17
      - [  0.19321481268889,  0.00000000000000 ]
      - [ -0.19321481268894,  0.00000000000000 ]
      - [ -0.00000000000002,  0.00000000000000 ]
  - # 4
    frequency:     0.5798623670
    eigenvector:
    - # atom 1
      - [  0.35702790345211,  0.00000000000000 ]
      - [ -0.35702790345233,  0.00000000000000 ]
      - [  0.00000000000001,  0.00000000000000 ]
    - # atom 2
      - [  0.35702790345210,  0.00000000000000 ]
      - [ -0.35702790345231,  0.00000000000000 ]
      - [  0.00000000000001,  0.00000000000000 ]
    - # atom 3
      - [ -0.24474826993003,  0.00000000000000 ]
      - [  0.24474826993018,  0.00000000000000 ]
      - [  0.00000000000001,  0.00000000000000 ]
    - # atom 4
      - [ -0.24474826993006,  0.00000000000000 ]
      - [  0.24474826993020,  0.00000000000000 ]
      - [  0.00000000000001,  0.00000000000000 ]
    - # atom 5
      - [  0.05289491606096,  0.00000000000000 ]
      - [ -0.05256029619309,  0.00000000000000 ]
      - [ -0.00193538250511,  0.00000000000000 ]
    - # atom 6
      - [  0.05256029619306,  0.00000000000000 ]
      - [ -0.05289491606099,  0.00000000000000 ]
      - [  0.00193538250512,  0.00000000000000 ]
    - # atom 7
      - [ -0.06701038621682,  0.00000000000000 ]
      - [  0.06701038621686,  0.00000000000000 ]
      - [  0.00000000000001,  0.00000000000000 ]
    - # atom 8
      - [ -0.06701038621682,  0.00000000000000 ]
      - [  0.06701038621686,  0.00000000000000 ]
      - [  0.00000000000001,  0.00000000000000 ]
    - # atom 9
      - [ -0.04681198062561,  0.00000000000000 ]
      - [  0.04681198062563,  0.00000000000000 ]
      - [  0.00000000000001,  0.00000000000000 ]
    - # atom 10
      - [ -0.04681198062560,  0.00000000000000 ]
      - [  0.04681198062563,  0.00000000000000 ]
      - [  0.00000000000001,  0.00000000000000 ]
    - # atom 11
      - [ -0.08283854094231,  0.00000000000000 ]
      - [  0.12799463418912,  0.00000000000000 ]
      - [  0.00062469130506,  0.00000000000000 ]
    - # atom 12
      - [ -0.12799463418904,  0.00000000000000 ]
      - [  0.08283854094236,  0.00000000000000 ]
      - [ -0.00062469130504,  0.00000000000000 ]
    - # atom 13
      - [ -0.08283854094232,  0.00000000000000 ]
      - [  0.12799463418913,  0.00000000000000 ]
      - [  0.00062469130506,  0.00000000000000 ]
    - # atom 14
      - [ -0.12799463418906,  0.00000000000000 ]
      - [  0.08283854094237,  0.00000000000000 ]
      - [ -0.00062469130504,  0.00000000000000 ]
    - # atom 15
      - [  0.15678448127189,  0.00000000000000 ]
      - [ -0.15678448127199,  0.00000000000000 ]
      - [  0.00000000000001,  0.00000000000000 ]
    - # atom 16
      - [ -0.13277642324125,  0.00000000000000 ]
      - [  0.13277642324133,  0.00000000000000 ]
      - [  0.00000000000001,  0.00000000000000 ]
    - # atom 17
      - [ -0.13277642324126,  0.00000000000000 ]
      - [  0.13277642324134,  0.00000000000000 ]
      - [  0.00000000000001,  0.00000000000000 ]
  - # 5
    frequency:     0.6058078068
    eigenvector:
    - # atom 1
      - [ -0.34935559947123,  0.00000000000000 ]
      - [ -0.34935559947099,  0.00000000000000 ]
      - [  0.02079096603744,  0.00000000000000 ]
    - # atom 2
      - [ -0.34935559947118,  0.00000000000000 ]
      - [ -0.34935559947100,  0.00000000000000 ]
      - [  0.02079096603743,  0.00000000000000 ]
    - # atom 3
      - [  0.25086947229863,  0.00000000000000 ]
      - [  0.25086947229851,  0.00000000000000 ]
      - [  0.01236580484913,  0.00000000000000 ]
    - # atom 4
      - [  0.25086947229863,  0.00000000000000 ]
      - [  0.25086947229845,  0.00000000000000 ]
      - [  0.01236580484913,  0.00000000000000 ]
    - # atom 5
      - [ -0.05152691585829,  0.00000000000000 ]
      - [ -0.05010960896328,  0.00000000000000 ]
      - [  0.00600983484522,  0.00000000000000 ]
    - # atom 6
      - [ -0.05010960896331,  0.00000000000000 ]
      - [ -0.05152691585826,  0.00000000000000 ]
      - [  0.00600983484522,  0.00000000000000 ]
    - # atom 7
      - [  0.07022543494806,  0.00000000000000 ]
      - [  0.07022543494802,  0.00000000000000 ]
      - [  0.00518112668735,  0.00000000000000 ]
    - # atom 8
      - [  0.07022543494806,  0.00000000000000 ]
      - [  0.07022543494802,  0.00000000000000 ]
      - [  0.00518112668735,  0.00000000000000 ]
    - # atom 9
      - [  0.04834370884275,  0.00000000000000 ]
      - [  0.04834370884272,  0.00000000000000 ]
      - [  0.00449682028778,  0.00000000000000 ]
    - # atom 10
      - [  0.04834370884275,  0.00000000000000 ]
      - [  0.04834370884272,  0.00000000000000 ]
      - [  0.00449682028778,  0.00000000000000 ]
    - # atom 11
      - [  0.08486470942950,  0.00000000000000 ]
      - [  0.12547489931901,  0.00000000000000 ]
      - [  0.00476466422677,  0.00000000000000 ]
    - # atom 12
      - [  0.12547489931907,  0.00000000000000 ]
      - [  0.08486470942946,  0.00000000000000 ]
      - [  0.00476466422677,  0.00000000000000 ]
    - # atom 13
      - [  0.08486470942950,  0.00000000000000 ]
      - [  0.12547489931898,  0.00000000000000 ]
      - [  0.00476466422677,  0.00000000000000 ]
    - # atom 14
      - [  0.12547489931907,  0.00000000000000 ]
      - [  0.08486470942944,  0.00000000000000 ]
      - [  0.00476466422677,  0.00000000000000 ]
    - # atom 15
      - [ -0.15265173465176,  0.00000000000000 ]
      - [ -0.15265173465168,  0.00000000000000 ]
      - [  0.00784646047560,  0.00000000000000 ]
    - # atom 16
      - [  0.14200663751709,  0.00000000000000 ]
      - [  0.14200663751703,  0.00000000000000 ]
      - [  0.00748925138853,  0.00000000000000 ]
    - # atom 17
      - [  0.14200663751710,  0.00000000000000 ]
      - [  0.14200663751699,  0.00000000000000 ]
      - [  0.00748925138853,  0.00000000000000 ]
  - # 6
    frequency:     0.7161526841
    eigenvector:
    - # atom 1
      - [ -0.03573688672502,  0.00000000000000 ]
      - [ -0.03573688672471,  0.00000000000000 ]
      - [  0.00001596781487,  0.00000000000000 ]
    - # atom 2
      - [  0.03573688672499,  0.00000000000000 ]
      - [  0.03573688672470,  0.00000000000000 ]
      - [ -0.00001596781486,  0.00000000000000 ]
    - # atom 3
      - [ -0.38597809890300,  0.00000000000000 ]
      - [ -0.38597809890201,  0.00000000000000 ]
      - [  0.00020560402621,  0.00000000000000 ]
    - # atom 4
      - [  0.38597809890301,  0.00000000000000 ]
      - [  0.38597809890204,  0.00000000000000 ]
      - [ -0.00020560402620,  0.00000000000000 ]
    - # atom 5
      - [ -0.00000000000001,  0.00000000000000 ]
      - [  0.00000000000000,  0.00000000000000 ]
      - [  0.00000000000000,  0.00000000000000 ]
    - # atom 6
      - [ -0.00000000000000,  0.00000000000000 ]
      - [ -0.00000000000000,  0.00000000000000 ]
      - [  0.00000000000000,  0.00000000000000 ]
    - # atom 7
      - [ -0.01358951021144,  0.00000000000000 ]
      - [ -0.01358951021142,  0.00000000000000 ]
      - [ -0.00003794301861,  0.00000000000000 ]
    - # atom 8
      - [  0.01358951021144,  0.00000000000000 ]
      - [  0.01358951021143,  0.00000000000000 ]
      - [  0.00003794301861,  0.00000000000000 ]
    - # atom 9
      - [  0.01125673755480,  0.00000000000000 ]
      - [  0.01125673755478,  0.00000000000000 ]
      - [ -0.00003534230626,  0.00000000000000 ]
    - # atom 10
      - [ -0.01125673755480,  0.00000000000000 ]
      - [ -0.01125673755477,  0.00000000000000 ]
      - [  0.00003534230627,  0.00000000000000 ]
    - # atom 11
      - [ -0.11713621342089,  0.00000000000000 ]
      - [ -0.19346959693106,  0.00000000000000 ]
      - [  0.00001701485183,  0.00000000000000 ]
    - # atom 12
      - [ -0.19346959693152,  0.00000000000000 ]
      - [ -0.11713621342059,  0.00000000000000 ]
      - [  0.00001701485183,  0.00000000000000 ]
    - # atom 13
      - [  0.11713621342089,  0.00000000000000 ]
      - [  0.19346959693107,  0.00000000000000 ]
      - [ -0.00001701485183,  0.00000000000000 ]
    - # atom 14
      - [  0.19346959693153,  0.00000000000000 ]
      - [  0.11713621342060,  0.00000000000000 ]
      - [ -0.00001701485183,  0.00000000000000 ]
    - # atom 15
      - [ -0.00000000000001,  0.00000000000000 ]
      - [  0.00000000000000,  0.00000000000000 ]
      - [  0.00000000000001,  0.00000000000000 ]
    - # atom 16
      - [ -0.21972934515169,  0.00000000000000 ]
      - [ -0.21972934515109,  0.00000000000000 ]
      - [ -0.00012423210199,  0.00000000000000 ]
    - # atom 17
      - [  0.21972934515170,  0.00000000000000 ]
      - [  0.21972934515111,  0.00000000000000 ]
      - [  0.00012423210200,  0.00000000000000 ]
  - # 7
    frequency:     0.7235875859
    eigenvector:
    - # atom 1
      - [ -0.11242359533899,  0.00000000000000 ]
      - [  0.11242359533909,  0.00000000000000 ]
      - [ -0.00000000000000,  0.00000000000000 ]
    - # atom 2
      - [  0.11242359533903,  0.00000000000000 ]
      - [ -0.11242359533909,  0.00000000000000 ]
      - [  0.00000000000000,  0.00000000000000 ]
    - # atom 3
      - [ -0.37558224242057,  0.00000000000000 ]
      - [  0.37558224242154,  0.00000000000000 ]
      - [  0.00000000000000,  0.00000000000000 ]
    - # atom 4
      - [  0.37558224242052,  0.00000000000000 ]
      - [ -0.37558224242156,  0.00000000000000 ]
      - [  0.00000000000000,  0.00000000000000 ]
    - # atom 5
      - [ -0.00000000000001,  0.00000000000000 ]
      - [ -0.00000000000000,  0.00000000000000 ]
      - [  0.00000000000000,  0.00000000000000 ]
    - # atom 6
      - [ -0.00000000000000,  0.00000000000000 ]
      - [ -0.00000000000000,  0.00000000000000 ]
      - [  0.00000000000000,  0.00000000000000 ]
    - # atom 7
      - [ -0.00682580661487,  0.00000000000000 ]
      - [  0.00682580661490,  0.00000000000000 ]
      - [  0.00000000000000,  0.00000000000000 ]
    - # atom 8
      - [  0.00682580661486,  0.00000000000000 ]
      - [ -0.00682580661491,  0.00000000000000 ]
      - [  0.00000000000000,  0.00000000000000 ]
    - # atom 9
      - [  0.01129000776986,  0.00000000000000 ]
      - [ -0.01129000776990,  0.00000000000000 ]
      - [  0.00000000000000,  0.00000000000000 ]
    - # atom 10
      - [ -0.01129000776987,  0.00000000000000 ]
      - [  0.01129000776989,  0.00000000000000 ]
      - [  0.00000000000000,  0.00000000000000 ]
    - # atom 11
      - [ -0.11404255079178,  0.00000000000000 ]
      - [  0.17707048332965,  0.00000000000000 ]
      - [ -0.00037157403725,  0.00000000000000 ]
    - # atom 12
      - [ -0.17707048332916,  0.00000000000000 ]
      - [  0.11404255079208,  0.00000000000000 ]
      - [  0.00037157403725,  0.00000000000000 ]
    - # atom 13
      - [  0.11404255079177,  0.00000000000000 ]
      - [ -0.17707048332966,  0.00000000000000 ]
      - [  0.00037157403725,  0.00000000000000 ]
    - # atom 14
      - [  0.17707048332914,  0.00000000000000 ]
      - [ -0.11404255079209,  0.00000000000000 ]
      - [ -0.00037157403725,  0.00000000000000 ]
    - # atom 15
      - [  0.00000000000001,  0.00000000000000 ]
      - [ -0.00000000000000,  0.00000000000000 ]
      - [  0.00000000000000,  0.00000000000000 ]
    - # atom 16
      - [ -0.22751936390691,  0.00000000000000 ]
      - [  0.22751936390746,  0.00000000000000 ]
      - [  0.00000000000000,  0.00000000000000 ]
    - # atom 17
      - [  0.22751936390688,  0.00000000000000 ]
      - [ -0.22751936390748,  0.00000000000000 ]
      - [  0.00000000000000,  0.00000000000000 ]
  - # 8
    frequency:     0.8632502269
    eigenvector:
    - # atom 1
      - [  0.49659318392811,  0.00000000000000 ]
      - [  0.49659318392874,  0.00000000000000 ]
      - [ -0.00001248703639,  0.00000000000000 ]
    - # atom 2
      - [ -0.49659318392812,  0.00000000000000 ]
      - [ -0.49659318392876,  0.00000000000000 ]
      - [  0.00001248703639,  0.00000000000000 ]
    - # atom 3
      - [ -0.03044748903364,  0.00000000000000 ]
      - [ -0.03044748903374,  0.00000000000000 ]
      - [  0.00029592703561,  0.00000000000000 ]
    - # atom 4
      - [  0.03044748903365,  0.00000000000000 ]
      - [  0.03044748903376,  0.00000000000000 ]
      - [ -0.00029592703562,  0.00000000000000 ]
    - # atom 5
      - [ -0.00000000000000,  0.00000000000000 ]
      - [ -0.00000000000000,  0.00000000000000 ]
      - [ -0.00000000000000,  0.00000000000000 ]
    - # atom 6
      - [ -0.00000000000000,  0.00000000000000 ]
      - [ -0.00000000000000,  0.00000000000000 ]
      - [  0.00000000000000,  0.00000000000000 ]
    - # atom 7
      - [ -0.03953274897094,  0.00000000000000 ]
      - [ -0.03953274897099,  0.00000000000000 ]
      - [ -0.00005673439229,  0.00000000000000 ]
    - # atom 8
      - [  0.03953274897093,  0.00000000000000 ]
      - [  0.03953274897099,  0.00000000000000 ]
      - [  0.00005673439229,  0.00000000000000 ]
    - # atom 9
      - [  0.00017019147981,  0.00000000000000 ]
      - [  0.00017019147981,  0.00000000000000 ]
      - [ -0.00011821446059,  0.00000000000000 ]
    - # atom 10
      - [ -0.00017019147981,  0.00000000000000 ]
      - [ -0.00017019147982,  0.00000000000000 ]
      - [  0.00011821446059,  0.00000000000000 ]
    - # atom 11
      - [ -0.00663213892763,  0.00000000000000 ]
      - [ -0.02903241928868,  0.00000000000000 ]
      - [ -0.00008809875262,  0.00000000000000 ]
    - # atom 12
      - [ -0.02903241928862,  0.00000000000000 ]
      - [ -0.00663213892766,  0.00000000000000 ]
      - [ -0.00008809875262,  0.00000000000000 ]
    - # atom 13
      - [  0.00663213892763,  0.00000000000000 ]
      - [  0.02903241928869,  0.00000000000000 ]
      - [  0.00008809875261,  0.00000000000000 ]
    - # atom 14
      - [  0.02903241928862,  0.00000000000000 ]
      - [  0.00663213892766,  0.00000000000000 ]
      - [  0.00008809875261,  0.00000000000000 ]
    - # atom 15
      - [ -0.00000000000001,  0.00000000000000 ]
      - [ -0.00000000000000,  0.00000000000000 ]
      - [ -0.00000000000000,  0.00000000000000 ]
    - # atom 16
      - [  0.00427040723227,  0.00000000000000 ]
      - [  0.00427040723225,  0.00000000000000 ]
      - [ -0.00050920350500,  0.00000000000000 ]
    - # atom 17
      - [ -0.00427040723227,  0.00000000000000 ]
      - [ -0.00427040723224,  0.00000000000000 ]
      - [  0.00050920350500,  0.00000000000000 ]
  - # 9
    frequency:     0.8668195025
    eigenvector:
    - # atom 1
      - [  0.48465911563319,  0.00000000000000 ]
      - [ -0.48465911563256,  0.00000000000000 ]
      - [  0.00000000000000,  0.00000000000000 ]
    - # atom 2
      - [ -0.48465911563321,  0.00000000000000 ]
      - [  0.48465911563254,  0.00000000000000 ]
      - [  0.00000000000000,  0.00000000000000 ]
    - # atom 3
      - [ -0.09289991819543,  0.00000000000000 ]
      - [  0.09289991819539,  0.00000000000000 ]
      - [ -0.00000000000000,  0.00000000000000 ]
    - # atom 4
      - [  0.09289991819545,  0.00000000000000 ]
      - [ -0.09289991819539,  0.00000000000000 ]
      - [  0.00000000000000,  0.00000000000000 ]
    - # atom 5
      - [ -0.00000000000001,  0.00000000000000 ]
      - [ -0.00000000000000,  0.00000000000000 ]
      - [  0.00000000000000,  0.00000000000000 ]
    - # atom 6
      - [  0.00000000000000,  0.00000000000000 ]
      - [ -0.00000000000000,  0.00000000000000 ]
      - [  0.00000000000000,  0.00000000000000 ]
    - # atom 7
      - [ -0.04146498940189,  0.00000000000000 ]
      - [  0.04146498940184,  0.00000000000000 ]
      - [  0.00000000000000,  0.00000000000000 ]
    - # atom 8
      - [  0.04146498940190,  0.00000000000000 ]
      - [ -0.04146498940184,  0.00000000000000 ]
      - [  0.00000000000000,  0.00000000000000 ]
    - # atom 9
      - [  0.00260507176577,  0.00000000000000 ]
      - [ -0.00260507176576,  0.00000000000000 ]
      - [ -0.00000000000000,  0.00000000000000 ]
    - # atom 10
      - [ -0.00260507176576,  0.00000000000000 ]
      - [  0.00260507176576,  0.00000000000000 ]
      - [ -0.00000000000000,  0.00000000000000 ]
    - # atom 11
      - [ -0.02373180682905,  0.00000000000000 ]
      - [  0.05872244310457,  0.00000000000000 ]
      - [ -0.00013312713378,  0.00000000000000 ]
    - # atom 12
      - [ -0.05872244310461,  0.00000000000000 ]
      - [  0.02373180682904,  0.00000000000000 ]
      - [  0.00013312713378,  0.00000000000000 ]
    - # atom 13
      - [  0.02373180682906,  0.00000000000000 ]
      - [ -0.05872244310457,  0.00000000000000 ]
      - [  0.00013312713378,  0.00000000000000 ]
    - # atom 14
      - [  0.05872244310462,  0.00000000000000 ]
      - [ -0.02373180682905,  0.00000000000000 ]
      - [ -0.00013312713378,  0.00000000000000 ]
    - # atom 15
      - [  0.00000000000000,  0.00000000000000 ]
      - [ -0.00000000000001,  0.00000000000000 ]
      - [  0.00000000000000,  0.00000000000000 ]
    - # atom 16
      - [ -0.02715646121768,  0.00000000000000 ]
      - [  0.02715646121768,  0.00000000000000 ]
      - [ -0.00000000000000,  0.00000000000000 ]
    - # atom 17
      - [  0.02715646121769,  0.00000000000000 ]
      - [ -0.02715646121768,  0.00000000000000 ]
      - [  0.00000000000000,  0.00000000000000 ]
  - # 10
    frequency:     1.2185687606
    eigenvector:
    - # atom 1
      - [  0.12301470536273,  0.00000000000000 ]
      - [  0.12301470536272,  0.00000000000000 ]
      - [ -0.04679029861172,  0.00000000000000 ]
    - # atom 2
      - [  0.12301470536273,  0.00000000000000 ]
      - [  0.12301470536274,  0.00000000000000 ]
      - [ -0.04679029861172,  0.00000000000000 ]
    - # atom 3
      - [  0.22170227755866,  0.00000000000000 ]
      - [  0.22170227755865,  0.00000000000000 ]
      - [  0.00667325607714,  0.00000000000000 ]
    - # atom 4
      - [  0.22170227755866,  0.00000000000000 ]
      - [  0.22170227755865,  0.00000000000000 ]
      - [  0.00667325607713,  0.00000000000000 ]
    - # atom 5
      - [  0.02391107587524,  0.00000000000000 ]
      - [ -0.11040031984203,  0.00000000000000 ]
      - [ -0.00610393040097,  0.00000000000000 ]
    - # atom 6
      - [ -0.11040031984204,  0.00000000000000 ]
      - [  0.02391107587523,  0.00000000000000 ]
      - [ -0.00610393040096,  0.00000000000000 ]
    - # atom 7
      - [ -0.24342890273720,  0.00000000000000 ]
      - [ -0.24342890273719,  0.00000000000000 ]
      - [  0.00220444882090,  0.00000000000000 ]
    - # atom 8
      - [ -0.24342890273720,  0.00000000000000 ]
      - [ -0.24342890273719,  0.00000000000000 ]
      - [  0.00220444882090,  0.00000000000000 ]
    - # atom 9
      - [ -0.28857487834865,  0.00000000000000 ]
      - [ -0.28857487834864,  0.00000000000000 ]
      - [  0.00624397312941,  0.00000000000000 ]
    - # atom 10
      - [ -0.28857487834865,  0.00000000000000 ]
      - [ -0.28857487834864,  0.00000000000000 ]
      - [  0.00624397312941,  0.00000000000000 ]
    - # atom 11
      - [ -0.04875180009472,  0.00000000000000 ]
      - [  0.09948715991687,  0.00000000000000 ]
      - [  0.00267138174306,  0.00000000000000 ]
    - # atom 12
      - [  0.09948715991688,  0.00000000000000 ]
      - [ -0.04875180009471,  0.00000000000000 ]
      - [  0.00267138174306,  0.00000000000000 ]
    - # atom 13
      - [ -0.04875180009471,  0.00000000000000 ]