calculator: aims
length_unit: angstrom
nqpoint: 561    
npath: 11     
segment_nqpoint:
- 51
- 51
- 51
- 51
- 51
- 51
- 51
- 51
- 51
- 51
- 51
labels:
- [ 'G', 'X' ]
- [ 'X', 'Y' ]
- [ 'Y', 'S' ]
- [ 'S', 'G' ]
- [ 'G', 'Z' ]
- [ 'Z', 'S1' ]
- [ 'S1', 'N' ]
- [ 'N', 'P' ]
- [ 'P', 'Y1' ]
- [ 'Y1', 'Z:' ]
- [ 'X', 'P' ]
reciprocal_lattice:
- [  -0.00000000,   0.20316615,   0.06426146 ] # a*
- [   0.20316615,   0.00000000,   0.06426146 ] # b*
- [   0.20316615,   0.20316615,   0.00000000 ] # c*
natom: 7      
lattice:
- [    -2.461039890000000,     2.461039890000000,     7.780713370000000 ] # a
- [     2.461039890000000,    -2.461039890000000,     7.780713370000000 ] # b
- [     2.461039890000000,     2.461039890000000,    -7.780713370000000 ] # c
points:
- symbol: Ba # 1
  coordinates: [  0.641135570000000,  0.641135570000000,  0.000000000000000 ]
  mass: 137.327000
- symbol: Ba # 2
  coordinates: [  0.358864430000000,  0.358864430000000,  0.000000000000000 ]
  mass: 137.327000
- symbol: S  # 3
  coordinates: [  0.500000000000000,  0.000000000000000,  0.500000000000000 ]
  mass: 32.065000
- symbol: S  # 4
  coordinates: [  0.000000000000000,  0.500000000000000,  0.500000000000000 ]
  mass: 32.065000
- symbol: S  # 5
  coordinates: [  0.835702150000000,  0.835702150000000,  0.000000000000000 ]
  mass: 32.065000
- symbol: S  # 6
  coordinates: [  0.164297850000000,  0.164297850000000,  0.000000000000000 ]
  mass: 32.065000
- symbol: Zr # 7
  coordinates: [  0.000000000000000,  0.000000000000000,  0.000000000000000 ]
  mass: 91.224000

phonon:
- q-position: [    0.0000000,    0.0000000,    0.0000000 ]
  distance:    0.0000000
  band:
  - # 1
    frequency:   -0.0031998991
  - # 2
    frequency:   -0.0019229253
  - # 3
    frequency:   -0.0003093751
  - # 4
    frequency:    0.9319292632
  - # 5
    frequency:    0.9382908068
  - # 6
    frequency:    1.5711111601
  - # 7
    frequency:    1.5716979242
  - # 8
    frequency:    2.4593513291
  - # 9
    frequency:    2.4695061531
  - # 10
    frequency:    3.2381139914
  - # 11
    frequency:    3.2393361015
  - # 12
    frequency:    3.4241856833
  - # 13
    frequency:    3.6322292939
  - # 14
    frequency:    3.6343383543
  - # 15
    frequency:    3.7825629849
  - # 16
    frequency:    4.1967311884
  - # 17
    frequency:    4.8637258667
  - # 18
    frequency:    8.0526323396
  - # 19
    frequency:    9.4285703639
  - # 20
    frequency:   11.2446111267
  - # 21
    frequency:   11.2448276165

- q-position: [   -0.0100000,    0.0100000,    0.0000000 ]
  distance:    0.0028732
  band:
  - # 1
    frequency:    0.0643621436
  - # 2
    frequency:    0.0968206348
  - # 3
    frequency:    0.1440823559
  - # 4
    frequency:    0.9366067987
  - # 5
    frequency:    0.9482074002
  - # 6
    frequency:    1.5708137286
  - # 7
    frequency:    1.5727002142
  - # 8
    frequency:    2.4661711322
  - # 9
    frequency:    2.4789127772
  - # 10
    frequency:    3.2394744631
  - # 11
    frequency:    3.2458191272
  - # 12
    frequency:    3.4251209474
  - # 13
    frequency:    3.6279627431
  - # 14
    frequency:    3.6294863727
  - # 15
    frequency:    3.7863503456
  - # 16
    frequency:    4.2024346954
  - # 17
    frequency:    4.8648160094
  - # 18
    frequency:    8.0529454708
  - # 19
    frequency:    9.4267525777
  - # 20
    frequency:   11.2448117323
  - # 21
    frequency:   11.2488792715

- q-position: [   -0.0200000,    0.0200000,    0.0000000 ]
  distance:    0.0057464
  band:
  - # 1
    frequency:    0.1285377906
  - # 2
    frequency:    0.1918050541
  - # 3
    frequency:    0.2862025259
  - # 4
    frequency:    0.9506659742
  - # 5
    frequency:    0.9772543383
  - # 6
    frequency:    1.5699591697
  - # 7
    frequency:    1.5757115184
  - # 8
    frequency:    2.4864014927
  - # 9
    frequency:    2.5068891246
  - # 10
    frequency:    3.2435199256
  - # 11
    frequency:    3.2651881097
  - # 12
    frequency:    3.4279904734
  - # 13
    frequency:    3.6156089357
  - # 14
    frequency:    3.6162288564
  - # 15
    frequency:    3.7966590628
  - # 16
    frequency:    4.2189239379
  - # 17
    frequency:    4.8680706139
  - # 18
    frequency:    8.0538815435
  - # 19
    frequency:    9.4213403826
  - # 20
    frequency:   11.2454052358
  - # 21
    frequency:   11.2609775456

- q-position: [   -0.0300000,    0.0300000,    0.0000000 ]
  distance:    0.0086196
  band:
  - # 1
    frequency:    0.1920717135
  - # 2
    frequency:    0.2831347681
  - # 3
    frequency:    0.4244360888
  - # 4
    frequency:    0.9741584708
  - # 5
    frequency:    1.0235106854
  - # 6
    frequency:    1.5686605682
  - # 7
    frequency:    1.5807521394
  - # 8
    frequency:    2.5193609578
  - # 9
    frequency:    2.5527197976
  - # 10
    frequency:    3.2501425705
  - # 11
    frequency:    3.2971554311
  - # 12
    frequency:    3.4329870770
  - # 13
    frequency:    3.5945014107
  - # 14
    frequency:    3.5991826052
  - # 15
    frequency:    3.8113766962
  - # 16
    frequency:    4.2446231408
  - # 17
    frequency:    4.8734427813
  - # 18
    frequency:    8.0554306285
  - # 19
    frequency:    9.4124532593
  - # 20
    frequency:   11.2463667870
  - # 21
    frequency:   11.2809564384

- q-position: [   -0.0400000,    0.0400000,    0.0000000 ]
  distance:    0.0114928
  band:
  - # 1
    frequency:    0.2546632337
  - # 2
    frequency:    0.3692312389
  - # 3
    frequency:    0.5569559806
  - # 4
    frequency:    1.0070702550
  - # 5
    frequency:    1.0842721052
  - # 6
    frequency:    1.5671065869
  - # 7
    frequency:    1.5878832191
  - # 8
    frequency:    2.5639246429
  - # 9
    frequency:    2.6152573069
  - # 10
    frequency:    3.2591619868
  - # 11
    frequency:    3.3409851426
  - # 12
    frequency:    3.4404530018
  - # 13
    frequency:    3.5687108792
  - # 14
    frequency:    3.5786998380
  - # 15
    frequency:    3.8287190279
  - # 16
    frequency:    4.2775988214
  - # 17
    frequency:    4.8808562048
  - # 18
    frequency:    8.0575762876
  - # 19
    frequency:    9.4002778153
  - # 20
    frequency:   11.2476552665
  - # 21
    frequency:   11.3085520236

- q-position: [   -0.0500000,    0.0500000,    0.0000000 ]
  distance:    0.0143660
  band:
  - # 1
    frequency:    0.3159782343
  - # 2
    frequency:    0.4488824837
  - # 3
    frequency:    0.6821221967
  - # 4
    frequency:    1.0491637250
  - # 5
    frequency:    1.1564643245
  - # 6
    frequency:    1.5655637732
  - # 7
    frequency:    1.5972651098
  - # 8
    frequency:    2.6185165472
  - # 9
    frequency:    2.6929686580
  - # 10
    frequency:    3.2703198050
  - # 11
    frequency:    3.3940430066
  - # 12
    frequency:    3.4513622987
  - # 13
    frequency:    3.5420617919
  - # 14
    frequency:    3.5560952908
  - # 15
    frequency:    3.8475565010
  - # 16
    frequency:    4.3160339186
  - # 17
    frequency:    4.8902077984
  - # 18
    frequency:    8.0602957421
  - # 19
    frequency:    9.3850516308
  - # 20
    frequency:   11.2492137354
  - # 21
    frequency:   11.3434189445

- q-position: [   -0.0600000,    0.0600000,    0.0000000 ]
  distance:    0.0172392
  band:
  - # 1
    frequency:    0.3756536839
  - # 2
    frequency:    0.5214336948
  - # 3
    frequency:    0.7986018295
  - # 4
    frequency:    1.0997884741
  - # 5
    frequency:    1.2368186670
  - # 6
    frequency:    1.5643840925
  - # 7
    frequency:    1.6092908076
  - # 8
    frequency:    2.6810662922
  - # 9
    frequency:    2.7839543426
  - # 10
    frequency:    3.2832576452
  - # 11
    frequency:    3.4362555590
  - # 12
    frequency:    3.4769255076
  - # 13
    frequency:    3.5254547907
  - # 14
    frequency:    3.5324071647
  - # 15
    frequency:    3.8672330806
  - # 16
    frequency:    4.3584309793
  - # 17
    frequency:    4.9013710871
  - # 18
    frequency:    8.0635601085
  - # 19
    frequency:    9.3670450169
  - # 20
    frequency:   11.2509700660
  - # 21
    frequency:   11.3851491750

- q-position: [   -0.0700000,    0.0700000,    0.0000000 ]
  distance:    0.0201124
  band:
  - # 1
    frequency:    0.4332901639
  - # 2
    frequency:    0.5868968455
  - # 3
    frequency:    0.9054851591
  - # 4
    frequency:    1.1577495330
  - # 5
    frequency:    1.3216832244
  - # 6
    frequency:    1.5640240791
  - # 7
    frequency:    1.6249054939
  - # 8
    frequency:    2.7489337905
  - # 9
    frequency:    2.8858682117
  - # 10
    frequency:    3.2974378721
  - # 11
    frequency:    3.4321656093
  - # 12
    frequency:    3.5086978950
  - # 13
    frequency:    3.5088562548
  - # 14
    frequency:    3.5647824749
  - # 15
    frequency:    3.8873686309
  - # 16
    frequency:    4.4036288835
  - # 17
    frequency:    4.9142001233
  - # 18
    frequency:    8.0673347077
  - # 19
    frequency:    9.3465433961
  - # 20
    frequency:   11.2528377572
  - # 21
    frequency:   11.4332903700

- q-position: [   -0.0800000,    0.0800000,    0.0000000 ]
  distance:    0.0229856
  band:
  - # 1
    frequency:    0.4884449207
  - # 2
    frequency:    0.6458916980
  - # 3
    frequency:    1.0023424499
  - # 4
    frequency:    1.2213070893
  - # 5
    frequency:    1.4062794232
  - # 6
    frequency:    1.5650908081
  - # 7
    frequency:    1.6463874319
  - # 8
    frequency:    2.8188589328
  - # 9
    frequency:    2.9955530883
  - # 10
    frequency:    3.3118625799
  - # 11
    frequency:    3.4057834526
  - # 12
    frequency:    3.4877052414
  - # 13
    frequency:    3.5357284730
  - # 14
    frequency:    3.6490639559
  - # 15
    frequency:    3.9077384862
  - # 16
    frequency:    4.4507457211
  - # 17
    frequency:    4.9285336915
  - # 18
    frequency:    8.0715794443
  - # 19
    frequency:    9.3238322799
  - # 20
    frequency:   11.2547169363
  - # 21
    frequency:   11.4873618716

- q-position: [   -0.0900000,    0.0900000,    0.0000000 ]
  distance:    0.0258588
  band:
  - # 1
    frequency:    0.5406319279
  - # 2
    frequency:    0.6994296256
  - # 3
    frequency:    1.0891874909
  - # 4
    frequency:    1.2882547837
  - # 5
    frequency:    1.4831934475
  - # 6
    frequency:    1.5684541286
  - # 7
    frequency:    1.6788808664
  - # 8
    frequency:    2.8870779457
  - # 9
    frequency:    3.1078296887
  - # 10
    frequency:    3.3241335575
  - # 11
    frequency:    3.3733246632
  - # 12
    frequency:    3.4745491728
  - # 13
    frequency:    3.5759514071
  - # 14
    frequency:    3.7463118432
  - # 15
    frequency:    3.9282122847
  - # 16
    frequency:    4.4991107989
  - # 17
    frequency:    4.9441995844
  - # 18
    frequency:    8.0762492614
  - # 19
    frequency:    9.2991858718
  - # 20
    frequency:   11.2564955474
  - # 21
    frequency:   11.5468673831

- q-position: [   -0.1000000,    0.1000000,    0.0000000 ]
  distance:    0.0287320
  band:
  - # 1
    frequency:    0.5893378282
  - # 2
    frequency:    0.7486481709
  - # 3
    frequency:    1.1663705087
  - # 4
    frequency:    1.3558587465
  - # 5
    frequency:    1.5426404478
  - # 6
    frequency:    1.5755297575
  - # 7
    frequency:    1.7301582822
  - # 8
    frequency:    2.9497980338
  - # 9
    frequency:    3.2119989734
  - # 10
    frequency:    3.3287578008
  - # 11
    frequency:    3.3396686321
  - # 12
    frequency:    3.4835895227
  - # 13
    frequency:    3.6306762933
  - # 14
    frequency:    3.8522327093
  - # 15
    frequency:    3.9487324089
  - # 16
    frequency:    4.5482084591
  - # 17
    frequency:    4.9610187747
  - # 18
    frequency:    8.0812946664
  - # 19
    frequency:    9.2728594798
  - # 20
    frequency:   11.2580507256
  - # 21
    frequency:   11.6113041629

- q-position: [   -0.1100000,    0.1100000,    0.0000000 ]
  distance:    0.0316052
  band:
  - # 1
    frequency:    0.6340629992
  - # 2
    frequency:    0.7945956774
  - # 3
    frequency:    1.2344555951
  - # 4
    frequency:    1.4203194009
  - # 5
    frequency:    1.5812582934
  - # 6
    frequency:    1.5889651797
  - # 7
    frequency:    1.8018298324
  - # 8
    frequency:    3.0040486991
  - # 9
    frequency:    3.2864892268
  - # 10
    frequency:    3.3065058245
  - # 11
    frequency:    3.3230391046
  - # 12
    frequency:    3.5371209207
  - # 13
    frequency:    3.7008738070
  - # 14
    frequency:    3.9650704045
  - # 15
    frequency:    3.9693317893
  - # 16
    frequency:    4.5976379536
  - # 17
    frequency:    4.9788093533
  - # 18
    frequency:    8.0866623299
  - # 19
    frequency:    9.2450853474
  - # 20
    frequency:   11.2592503543
  - # 21
    frequency:   11.6801691567

- q-position: [   -0.1200000,    0.1200000,    0.0000000 ]
  distance:    0.0344784
  band:
  - # 1
    frequency:    0.6743886016
  - # 2
    frequency:    0.8380949758
  - # 3
    frequency:    1.2941201651
  - # 4
    frequency:    1.4758178459
  - # 5
    frequency:    1.6056138664
  - # 6
    frequency:    1.6136379675
  - # 7
    frequency:    1.8858046570
  - # 8
    frequency:    3.0484710795
  - # 9
    frequency:    3.2746970632
  - # 10
    frequency:    3.2894681232
  - # 11
    frequency:    3.3438234774
  - # 12
    frequency:    3.6381002883
  - # 13
    frequency:    3.7862656122
  - # 14
    frequency:    3.9902361167
  - # 15
    frequency:    4.0834882166
  - # 16
    frequency:    4.6470881035
  - # 17
    frequency:    4.9973901514
  - # 18
    frequency:    8.0922957502
  - # 19
    frequency:    9.2160712202
  - # 20
    frequency:   11.2599547994
  - # 21
    frequency:   11.7529627682

- q-position: [   -0.1300000,    0.1300000,    0.0000000 ]
  distance:    0.0373516
  band:
  - # 1
    frequency:    0.7100511252
  - # 2
    frequency:    0.8796758292
  - # 3
    frequency:    1.3460817571
  - # 4
    frequency:    1.5167040687
  - # 5
    frequency:    1.6221247373
  - # 6
    frequency:    1.6544381915
  - # 7
    frequency:    1.9743164413
  - # 8
    frequency:    3.0834235457
  - # 9
    frequency:    3.2448271245
  - # 10
    frequency:    3.2613841805
  - # 11
    frequency:    3.3696289171
  - # 12
    frequency:    3.7650548257
  - # 13
    frequency:    3.8850227687
  - # 14
    frequency:    4.0123027672
  - # 15
    frequency:    4.2063117069
  - # 16
    frequency:    4.6963258502
  - # 17
    frequency:    5.0165840088
  - # 18
    frequency:    8.0981359802
  - # 19
    frequency:    9.1860008945
  - # 20
    frequency:   11.2600188100
  - # 21
    frequency:   11.8291910211

- q-position: [   -0.1400000,    0.1400000,    0.0000000 ]
  distance:    0.0402248
  band:
  - # 1
    frequency:    0.7409896170
  - # 2
    frequency:    0.9195698018
  - # 3
    frequency:    1.3910426473
  - # 4
    frequency:    1.5449607449
  - # 5
    frequency:    1.6338442358
  - # 6
    frequency:    1.7087416990
  - # 7
    frequency:    2.0630883849
  - # 8
    frequency:    3.1103651944
  - # 9
    frequency:    3.2173798763
  - # 10
    frequency:    3.2279000137
  - # 11
    frequency:    3.3882771893
  - # 12
    frequency:    3.8988270300
  - # 13
    frequency:    3.9943359811
  - # 14
    frequency:    4.0397219428
  - # 15
    frequency:    4.3324653131
  - # 16
    frequency:    4.7452022606
  - # 17
    frequency:    5.0362206885
  - # 18
    frequency:    8.1041224067
  - # 19
    frequency:    9.1550360604
  - # 20
    frequency:   11.2592935740
  - # 21
    frequency:   11.9083667825

- q-position: [   -0.1500000,    0.1500000,    0.0000000 ]
  distance:    0.0430980
  band:
  - # 1
    frequency:    0.7673400415
  - # 2
    frequency:    0.9577631882
  - # 3
    frequency:    1.4296428528
  - # 4
    frequency:    1.5674555192
  - # 5
    frequency:    1.6419735641
  - # 6
    frequency:    1.7690902818
  - # 7
    frequency:    2.1497897396
  - # 8
    frequency:    3.1310347151
  - # 9
    frequency:    3.1916344340
  - # 10
    frequency:    3.1928696690
  - # 11
    frequency:    3.4023341492
  - # 12
    frequency:    4.0036313438
  - # 13
    frequency:    4.1017851159
  - # 14
    frequency:    4.1111736034
  - # 15
    frequency:    4.4609118590
  - # 16
    frequency:    4.7936931082
  - # 17
    frequency:    5.0561394780
  - # 18
    frequency:    8.1101935719
  - # 19
    frequency:    9.1233188832
  - # 20
    frequency:   11.2576289094
  - # 21
    frequency:   11.9900105707

- q-position: [   -0.1600000,    0.1600000,    0.0000000 ]
  distance:    0.0459713
  band:
  - # 1
    frequency:    0.7893829672
  - # 2
    frequency:    0.9940856570
  - # 3
    frequency:    1.4624140774
  - # 4
    frequency:    1.5886772529
  - # 5
    frequency:    1.6469655206
  - # 6
    frequency:    1.8303982678
  - # 7
    frequency:    2.2329281644
  - # 8
    frequency:    3.1463017979
  - # 9
    frequency:    3.1535869782
  - # 10
    frequency:    3.1725466976
  - # 11
    frequency:    3.4127239285
  - # 12
    frequency:    4.0440514610
  - # 13
    frequency:    4.2308554456
  - # 14
    frequency:    4.2327633765
  - # 15
    frequency:    4.5904946763
  - # 16
    frequency:    4.8420420474
  - # 17
    frequency:    5.0761915883
  - # 18
    frequency:    8.1162880242
  - # 19
    frequency:    9.0909749035
  - # 20
    frequency:   11.2548755710
  - # 21
    frequency:   12.0736513077

- q-position: [   -0.1700000,    0.1700000,    0.0000000 ]
  distance:    0.0488445
  band:
  - # 1
    frequency:    0.8074727370
  - # 2
    frequency:    1.0282999302
  - # 3
    frequency:    1.4897244721
  - # 4
    frequency:    1.6105684138
  - # 5
    frequency:    1.6490330703
  - # 6
    frequency:    1.8900787936
  - # 7
    frequency:    2.3113749061
  - # 8
    frequency:    3.1143747335
  - # 9
    frequency:    3.1470722687
  - # 10
    frequency:    3.1673345290
  - # 11
    frequency:    3.4196426174
  - # 12
    frequency:    4.0662416179
  - # 13
    frequency:    4.3567646350
  - # 14
    frequency:    4.3790231626
  - # 15
    frequency:    4.7193524619
  - # 16
    frequency:    4.8913296494
  - # 17
    frequency:    5.0962426077
  - # 18
    frequency:    8.1223451838
  - # 19
    frequency:    9.0581159696
  - # 20
    frequency:   11.2508876471
  - # 21
    frequency:   12.1588272398

- q-position: [   -0.1800000,    0.1800000,    0.0000000 ]
  distance:    0.0517177
  band:
  - # 1
    frequency:    0.8219718716
  - # 2
    frequency:    1.0601681037
  - # 3
    frequency:    1.5116957937
  - # 4
    frequency:    1.6338523632
  - # 5
    frequency:    1.6484269068
  - # 6
    frequency:    1.9466907861
  - # 7
    frequency:    2.3841794903
  - # 8
    frequency:    3.0745136770
  - # 9
    frequency:    3.1338610946
  - # 10
    frequency:    3.1782450811
  - # 11
    frequency:    3.4230199092
  - # 12
    frequency:    4.0843667990
  - # 13
    frequency:    4.4812677856
  - # 14
    frequency:    4.5309310098
  - # 15
    frequency:    4.8418770502
  - # 16
    frequency:    4.9464989978
  - # 17
    frequency:    5.1161757197
  - # 18
    frequency:    8.1283062067
  - # 19
    frequency:    9.0248430111
  - # 20
    frequency:   11.2455250183
  - # 21
    frequency:   12.2450871271

- q-position: [   -0.1900000,    0.1900000,    0.0000000 ]
  distance:    0.0545909
  band:
  - # 1
    frequency:    0.8331986546
  - # 2
    frequency:    1.0894894510
  - # 3
    frequency:    1.5280662839
  - # 4
    frequency:    1.6456670302
  - # 5
    frequency:    1.6587034345
  - # 6
    frequency:    1.9992556737
  - # 7
    frequency:    2.4505215880
  - # 8
    frequency:    3.0345319687
  - # 9
    frequency:    3.1218389765
  - # 10
    frequency:    3.1913460434
  - # 11
    frequency:    3.4226944555
  - # 12
    frequency:    4.1005757950
  - # 13
    frequency:    4.6047282225
  - # 14
    frequency:    4.6835207906
  - # 15
    frequency:    4.9367382016
  - # 16
    frequency:    5.0283193624
  - # 17
    frequency:    5.1358980051
  - # 18
    frequency:    8.1341148298
  - # 19
    frequency:    8.9912485444
  - # 20
    frequency:   11.2386558464
  - # 21
    frequency:   12.3319917243

- q-position: [   -0.2000000,    0.2000000,    0.0000000 ]
  distance:    0.0574641
  band:
  - # 1
    frequency:    0.8413855460
  - # 2
    frequency:    1.1161164934
  - # 3
    frequency:    1.5380065995
  - # 4
    frequency:    1.6417796858
  - # 5
    frequency:    1.6850302636
  - # 6
    frequency:    2.0469699904
  - # 7
    frequency:    2.5097471233
  - # 8
    frequency:    2.9950306448
  - # 9
    frequency:    3.1121828790
  - # 10
    frequency:    3.2063903306
  - # 11
    frequency:    3.4184869980
  - # 12
    frequency:    4.1153831321
  - # 13
    frequency:    4.7258740561
  - # 14
    frequency:    4.8355145024
  - # 15
    frequency:    4.9949791512
  - # 16
    frequency:    5.1452986991
  - # 17
    frequency:    5.1553596974
  - # 18
    frequency:    8.1397181809
  - # 19
    frequency:    8.9574188488
  - # 20
    frequency:   11.2301590627
  - # 21
    frequency:   12.4191155115

- q-position: [   -0.2100000,    0.2100000,    0.0000000 ]
  distance:    0.0603373
  band:
  - # 1
    frequency:    0.8466435574
  - # 2
    frequency:    1.1399587684
  - # 3
    frequency:    1.5401161592
  - # 4
    frequency:    1.6383338762
  - # 5
    frequency:    1.7126075091
  - # 6
    frequency:    2.0890780606
  - # 7
    frequency:    2.5614606666
  - # 8
    frequency:    2.9567196980
  - # 9
    frequency:    3.1045048548
  - # 10
    frequency:    3.2243211389
  - # 11
    frequency:    3.4102353674
  - # 12
    frequency:    4.1289314482
  - # 13
    frequency:    4.8435582155
  - # 14
    frequency:    4.9859981803
  - # 15
    frequency:    5.0408267381
  - # 16
    frequency:    5.1746503778
  - # 17
    frequency:    5.2729486325
  - # 18
    frequency:    8.1450675348
  - # 19
    frequency:    8.9234357913
  - # 20
    frequency:   11.2199268210
  - # 21
    frequency:   12.5060486042

- q-position: [   -0.2200000,    0.2200000,    0.0000000 ]
  distance:    0.0632105
  band:
  - # 1
    frequency:    0.8489285224
  - # 2
    frequency:    1.1609819495
  - # 3
    frequency:    1.5331479222
  - # 4
    frequency:    1.6367375898
  - # 5
    frequency:    1.7411460343
  - # 6
    frequency:    2.1248202338
  - # 7
    frequency:    2.6056322422
  - # 8
    frequency:    2.9204309414
  - # 9
    frequency:    3.0981354475
  - # 10
    frequency:    3.2459066385
  - # 11
    frequency:    3.3978143718
  - # 12
    frequency:    4.1412442997
  - # 13
    frequency:    4.9563246509
  - # 14
    frequency:    5.0834073459
  - # 15
    frequency:    5.1328407515
  - # 16
    frequency:    5.1952956051
  - # 17
    frequency:    5.4024439937
  - # 18
    frequency:    8.1501190018
  - # 19
    frequency:    8.8893782966
  - # 20
    frequency:   11.2078668837
  - # 21
    frequency:   12.5923987493

- q-position: [   -0.2300000,    0.2300000,    0.0000000 ]
  distance:    0.0660837
  band:
  - # 1
    frequency:    0.8480062178
  - # 2
    frequency:    1.1792073626
  - # 3
    frequency:    1.5171142805
  - # 4
    frequency:    1.6371444077
  - # 5
    frequency:    1.7703340991
  - # 6
    frequency:    2.1534387865
  - # 7
    frequency:    2.6426550619
  - # 8
    frequency:    2.8870939904
  - # 9
    frequency:    3.0923816285
  - # 10
    frequency:    3.2714459388
  - # 11
    frequency:    3.3811499452
  - # 12
    frequency:    4.1522993057
  - # 13
    frequency:    5.0598569575
  - # 14
    frequency:    5.1283290994
  - # 15
    frequency:    5.2072288442
  - # 16
    frequency:    5.2856296064
  - # 17
    frequency:    5.5315463667
  - # 18
    frequency:    8.1548341315
  - # 19
    frequency:    8.8553234736
  - # 20
    frequency:   11.1939049102
  - # 21
    frequency:   12.6777933113

- q-position: [   -0.2400000,    0.2400000,    0.0000000 ]
  distance:    0.0689569
  band:
  - # 1
    frequency:    0.8434139248
  - # 2
    frequency:    1.1947145742
  - # 3
    frequency:    1.4931237703
  - # 4
    frequency:    1.6386225108
  - # 5
    frequency:    1.7998623249
  - # 6
    frequency:    2.1742509561
  - # 7
    frequency:    2.6733013793
  - # 8
    frequency:    2.8576521651
  - # 9
    frequency:    3.0866730922
  - # 10
    frequency:    3.3006859469
  - # 11
    frequency:    3.3602322531
  - # 12
    frequency:    4.1620553640
  - # 13
    frequency:    5.1340262579
  - # 14
    frequency:    5.1958887252
  - # 15
    frequency:    5.2261083089
  - # 16
    frequency:    5.4283136447
  - # 17
    frequency:    5.6593137149
  - # 18
    frequency:    8.1591804213
  - # 19
    frequency:    8.8213474190
  - # 20
    frequency:   11.1779866182
  - # 21
    frequency:   12.7618811587

- q-position: [   -0.2500000,    0.2500000,    0.0000000 ]
  distance:    0.0718301
  band:
  - # 1
    frequency:    0.8344164828
  - # 2
    frequency:    1.2076474931
  - # 3
    frequency:    1.4623672846
  - # 4
    frequency:    1.6401687097
  - # 5
    frequency:    1.8294383303
  - # 6
    frequency:    2.1867991100
  - # 7
    frequency:    2.6985801840
  - # 8
    frequency:    2.8329001852
  - # 9
    frequency:    3.0806206240
  - # 10
    frequency:    3.3329224528
  - # 11
    frequency:    3.3351310684
  - # 12
    frequency:    4.1704651385
  - # 13
    frequency:    5.1766084503
  - # 14
    frequency:    5.2431525652
  - # 15
    frequency:    5.2882643810
  - # 16
    frequency:    5.5693459435
  - # 17
    frequency:    5.7851622733
  - # 18
    frequency:    8.1631317186
  - # 19
    frequency:    8.7875257180
  - # 20
    frequency:   11.1600797939
  - # 21
    frequency:   12.8443343670

- q-position: [   -0.2600000,    0.2600000,    0.0000000 ]
  distance:    0.0747033
  band:
  - # 1
    frequency:    0.8199551059
  - # 2
    frequency:    1.2182219749
  - # 3
    frequency:    1.4256728612
  - # 4
    frequency:    1.6411496299
  - # 5
    frequency:    1.8587943815
  - # 6
    frequency:    2.1910542778
  - # 7
    frequency:    2.7195587726
  - # 8
    frequency:    2.8132601291
  - # 9
    frequency:    3.0740036335
  - # 10
    frequency:    3.3060169136
  - # 11
    frequency:    3.3672066295
  - # 12
    frequency:    4.1774820741
  - # 13
    frequency:    5.2108091511
  - # 14
    frequency:    5.2593814207
  - # 15
    frequency:    5.3821859909
  - # 16
    frequency:    5.7074288251
  - # 17
    frequency:    5.9086489664
  - # 18
    frequency:    8.1666685088
  - # 19
    frequency:    8.7539336712
  - # 20
    frequency:   11.1401761306
  - # 21
    frequency:   12.9248496728

- q-position: [   -0.2700000,    0.2700000,    0.0000000 ]
  distance:    0.0775765
  band:
  - # 1
    frequency:    0.7985856496
  - # 2
    frequency:    1.2267303028
  - # 3
    frequency:    1.3835452895
  - # 4
    frequency:    1.6412548760
  - # 5
    frequency:    1.8876902502
  - # 6
    frequency:    2.1875904382
  - # 7
    frequency:    2.7372179007
  - # 8
    frequency:    2.7985695241
  - # 9
    frequency:    3.0667265299
  - # 10
    frequency:    3.2731927517
  - # 11
    frequency:    3.4025474671
  - # 12
    frequency:    4.1830651679
  - # 13
    frequency:    5.2417274639
  - # 14
    frequency:    5.2749277150
  - # 15
    frequency:    5.4725189030
  - # 16
    frequency:    5.8421916659
  - # 17
    frequency:    6.0294059973
  - # 18
    frequency:    8.1697780843
  - # 19
    frequency:    8.7206462738
  - # 20
    frequency:   11.1182928787
  - # 21
    frequency:   13.0031496257

- q-position: [   -0.2800000,    0.2800000,    0.0000000 ]
  distance:    0.0804497
  band:
  - # 1
    frequency:    0.7683949192
  - # 2
    frequency:    1.2335360677
  - # 3
    frequency:    1.3362824011
  - # 4
    frequency:    1.6403710727
  - # 5
    frequency:    1.9159127345
  - # 6
    frequency:    2.1776202750
  - # 7
    frequency:    2.7523727676
  - # 8
    frequency:    2.7879796336
  - # 9
    frequency:    3.0587749232
  - # 10
    frequency:    3.2371433236
  - # 11
    frequency:    3.4380466261
  - # 12
    frequency:    4.1871827438
  - # 13
    frequency:    5.2703505771
  - # 14
    frequency:    5.2898341439
  - # 15
    frequency:    5.5582785712
  - # 16
    frequency:    5.9733855850
  - # 17
    frequency:    6.1471168631
  - # 18
    frequency:    8.1724545924
  - # 19
    frequency:    8.6877379831
  - # 20
    frequency:   11.0944742954
  - # 21
    frequency:   13.0789834019

- q-position: [   -0.2900000,    0.2900000,    0.0000000 ]
  distance:    0.0833229
  band:
  - # 1
    frequency:    0.7268571204
  - # 2
    frequency:    1.2390538719
  - # 3
    frequency:    1.2840500414
  - # 4
    frequency:    1.6384950408
  - # 5
    frequency:    1.9432725710
  - # 6
    frequency:    2.1628469837
  - # 7
    frequency:    2.7656529210
  - # 8
    frequency:    2.7799964548
  - # 9
    frequency:    3.0501837650
  - # 10
    frequency:    3.1986118431
  - # 11
    frequency:    3.4729602413
  - # 12
    frequency:    4.1898157263
  - # 13
    frequency:    5.2970002459
  - # 14
    frequency:    5.3041250821
  - # 15
    frequency:    5.6391827270
  - # 16
    frequency:    6.1008042334
  - # 17
    frequency:    6.2615054977
  - # 18
    frequency:    8.1746989630
  - # 19
    frequency:    8.6552823107
  - # 20
    frequency:   11.0687928873
  - # 21
    frequency:   13.1521272563

- q-position: [   -0.3000000,    0.3000000,    0.0000000 ]
  distance:    0.0861961
  band:
  - # 1
    frequency:    0.6705162236
  - # 2
    frequency:    1.2269166487
  - # 3
    frequency:    1.2437136251
  - # 4
    frequency:    1.6356847245
  - # 5
    frequency:    1.9695983024
  - # 6
    frequency:    2.1451993005
  - # 7
    frequency:    2.7725889748
  - # 8
    frequency:    2.7775178747
  - # 9
    frequency:    3.0410177712
  - # 10
    frequency:    3.1587124945
  - # 11
    frequency:    3.5067104073
  - # 12
    frequency:    4.1909605856
  - # 13
    frequency:    5.3178199921
  - # 14
    frequency:    5.3218297245
  - # 15
    frequency:    5.7151505024
  - # 16