mesh: [     1,     1,     1 ]
nqpoint: 1      
reciprocal_lattice:
- [  -0.00000000,   0.20316615,   0.06426146 ] # a*
- [   0.20316615,   0.00000000,   0.06426146 ] # b*
- [   0.20316615,   0.20316615,   0.00000000 ] # c*
natom:   7      
lattice:
- [    -2.461039890000000,     2.461039890000000,     7.780713370000000 ] # a
- [     2.461039890000000,    -2.461039890000000,     7.780713370000000 ] # b
- [     2.461039890000000,     2.461039890000000,    -7.780713370000000 ] # c
points:
- symbol: Ba # 1
  coordinates: [  0.641135570000000,  0.641135570000000,  0.000000000000000 ]
  mass: 137.327000
- symbol: Ba # 2
  coordinates: [  0.358864430000000,  0.358864430000000,  0.000000000000000 ]
  mass: 137.327000
- symbol: S  # 3
  coordinates: [  0.500000000000000,  0.000000000000000,  0.500000000000000 ]
  mass: 32.065000
- symbol: S  # 4
  coordinates: [  0.000000000000000,  0.500000000000000,  0.500000000000000 ]
  mass: 32.065000
- symbol: S  # 5
  coordinates: [  0.835702150000000,  0.835702150000000,  0.000000000000000 ]
  mass: 32.065000
- symbol: S  # 6
  coordinates: [  0.164297850000000,  0.164297850000000,  0.000000000000000 ]
  mass: 32.065000
- symbol: Zr # 7
  coordinates: [  0.000000000000000,  0.000000000000000,  0.000000000000000 ]
  mass: 91.224000

phonon:
- q-position: [    0.0000000,    0.0000000,    0.0000000 ]
  distance_from_gamma:  0.000000000
  weight: 1    
  band:
  - # 1
    frequency:    -0.0031998991
    eigenvector:
    - # atom 1
      - [ -0.01265704968387,  0.00000000000000 ]
      - [ -0.01265705004021,  0.00000000000000 ]
      - [  0.52687329815447,  0.00000000000000 ]
    - # atom 2
      - [ -0.01265704968387,  0.00000000000000 ]
      - [ -0.01265705004021,  0.00000000000000 ]
      - [  0.52687329815447,  0.00000000000000 ]
    - # atom 3
      - [ -0.00585659940699,  0.00000000000000 ]
      - [ -0.00611373996966,  0.00000000000000 ]
      - [  0.25459677970507,  0.00000000000000 ]
    - # atom 4
      - [ -0.00611373979752,  0.00000000000000 ]
      - [ -0.00585659957923,  0.00000000000000 ]
      - [  0.25459677970506,  0.00000000000000 ]
    - # atom 5
      - [ -0.00556626641892,  0.00000000000000 ]
      - [ -0.00556626659098,  0.00000000000000 ]
      - [  0.25459193308014,  0.00000000000000 ]
    - # atom 6
      - [ -0.00556626641892,  0.00000000000000 ]
      - [ -0.00556626659098,  0.00000000000000 ]
      - [  0.25459193308014,  0.00000000000000 ]
    - # atom 7
      - [ -0.01084256487767,  0.00000000000000 ]
      - [ -0.01084256516801,  0.00000000000000 ]
      - [  0.42940970601250,  0.00000000000000 ]
  - # 2
    frequency:    -0.0019229253
    eigenvector:
    - # atom 1
      - [ -0.37249093563452,  0.00000000000000 ]
      - [ -0.37249093618418,  0.00000000000000 ]
      - [ -0.01779211707602,  0.00000000000000 ]
    - # atom 2
      - [ -0.37249093563452,  0.00000000000000 ]
      - [ -0.37249093618418,  0.00000000000000 ]
      - [ -0.01779211707602,  0.00000000000000 ]
    - # atom 3
      - [ -0.17994699490945,  0.00000000000000 ]
      - [ -0.18004985537145,  0.00000000000000 ]
      - [ -0.00843490008632,  0.00000000000000 ]
    - # atom 4
      - [ -0.18004985510593,  0.00000000000000 ]
      - [ -0.17994699517513,  0.00000000000000 ]
      - [ -0.00843490008632,  0.00000000000000 ]
    - # atom 5
      - [ -0.18014785702242,  0.00000000000000 ]
      - [ -0.18014785728782,  0.00000000000000 ]
      - [ -0.00856369508447,  0.00000000000000 ]
    - # atom 6
      - [ -0.18014785702242,  0.00000000000000 ]
      - [ -0.18014785728782,  0.00000000000000 ]
      - [ -0.00856369508447,  0.00000000000000 ]
    - # atom 7
      - [ -0.30368551237084,  0.00000000000000 ]
      - [ -0.30368551281867,  0.00000000000000 ]
      - [ -0.01481206646071,  0.00000000000000 ]
  - # 3
    frequency:    -0.0003093751
    eigenvector:
    - # atom 1
      - [  0.37282795602052,  0.00000000000000 ]
      - [ -0.37282795545927,  0.00000000000000 ]
      - [ -0.00000000023867,  0.00000000000000 ]
    - # atom 2
      - [  0.37282795602052,  0.00000000000000 ]
      - [ -0.37282795545927,  0.00000000000000 ]
      - [ -0.00000000023867,  0.00000000000000 ]
    - # atom 3
      - [  0.18020819110204,  0.00000000000000 ]
      - [ -0.18009946681131,  0.00000000000000 ]
      - [  0.00000040893848,  0.00000000000000 ]
    - # atom 4
      - [  0.18009946708260,  0.00000000000000 ]
      - [ -0.18020819083115,  0.00000000000000 ]
      - [ -0.00000040916938,  0.00000000000000 ]
    - # atom 5
      - [  0.18002269304087,  0.00000000000000 ]
      - [ -0.18002269276995,  0.00000000000000 ]
      - [ -0.00000000011536,  0.00000000000000 ]
    - # atom 6
      - [  0.18002269304087,  0.00000000000000 ]
      - [ -0.18002269276995,  0.00000000000000 ]
      - [ -0.00000000011536,  0.00000000000000 ]
    - # atom 7
      - [  0.30376221122572,  0.00000000000000 ]
      - [ -0.30376221076764,  0.00000000000000 ]
      - [ -0.00000000019429,  0.00000000000000 ]
  - # 4
    frequency:     0.9319292632
    eigenvector:
    - # atom 1
      - [  0.23017749869635,  0.00000000000000 ]
      - [  0.23017749869642,  0.00000000000000 ]
      - [  0.00018319204591,  0.00000000000000 ]
    - # atom 2
      - [  0.23017749869635,  0.00000000000000 ]
      - [  0.23017749869642,  0.00000000000000 ]
      - [  0.00018319204591,  0.00000000000000 ]
    - # atom 3
      - [  0.18977713706283,  0.00000000000000 ]
      - [ -0.08698984750051,  0.00000000000000 ]
      - [  0.00062307303498,  0.00000000000000 ]
    - # atom 4
      - [ -0.08698984750048,  0.00000000000000 ]
      - [  0.18977713706289,  0.00000000000000 ]
      - [  0.00062307303498,  0.00000000000000 ]
    - # atom 5
      - [ -0.40606099163450,  0.00000000000000 ]
      - [ -0.40606099163463,  0.00000000000000 ]
      - [  0.00012200230030,  0.00000000000000 ]
    - # atom 6
      - [ -0.40606099163450,  0.00000000000000 ]
      - [ -0.40606099163463,  0.00000000000000 ]
      - [  0.00012200230030,  0.00000000000000 ]
    - # atom 7
      - [ -0.14381422287658,  0.00000000000000 ]
      - [ -0.14381422287663,  0.00000000000000 ]
      - [  0.00018787138247,  0.00000000000000 ]
  - # 5
    frequency:     0.9382908068
    eigenvector:
    - # atom 1
      - [ -0.22992013041906,  0.00000000000000 ]
      - [  0.22992013041899,  0.00000000000000 ]
      - [ -0.00000000000000,  0.00000000000000 ]
    - # atom 2
      - [ -0.22992013041906,  0.00000000000000 ]
      - [  0.22992013041899,  0.00000000000000 ]
      - [ -0.00000000000000,  0.00000000000000 ]
    - # atom 3
      - [ -0.18795472700172,  0.00000000000000 ]
      - [ -0.08699899053532,  0.00000000000000 ]
      - [ -0.00028360875977,  0.00000000000000 ]
    - # atom 4
      - [  0.08699899053535,  0.00000000000000 ]
      - [  0.18795472700166,  0.00000000000000 ]
      - [  0.00028360875976,  0.00000000000000 ]
    - # atom 5
      - [  0.40695554331791,  0.00000000000000 ]
      - [ -0.40695554331779,  0.00000000000000 ]
      - [ -0.00000000000000,  0.00000000000000 ]
    - # atom 6
      - [  0.40695554331791,  0.00000000000000 ]
      - [ -0.40695554331779,  0.00000000000000 ]
      - [ -0.00000000000000,  0.00000000000000 ]
    - # atom 7
      - [  0.14195758025402,  0.00000000000000 ]
      - [ -0.14195758025398,  0.00000000000000 ]
      - [ -0.00000000000000,  0.00000000000000 ]
  - # 6
    frequency:     1.5711111601
    eigenvector:
    - # atom 1
      - [  0.49538598329800,  0.00000000000000 ]
      - [ -0.49538598330461,  0.00000000000000 ]
      - [  0.00000000000000,  0.00000000000000 ]
    - # atom 2
      - [ -0.49538598329800,  0.00000000000000 ]
      - [  0.49538598330462,  0.00000000000000 ]
      - [ -0.00000000000000,  0.00000000000000 ]
    - # atom 3
      - [ -0.00000000000000,  0.00000000000000 ]
      - [  0.00000000000000,  0.00000000000000 ]
      - [  0.00000000000000,  0.00000000000000 ]
    - # atom 4
      - [ -0.00000000000000,  0.00000000000000 ]
      - [  0.00000000000000,  0.00000000000000 ]
      - [  0.00000000000000,  0.00000000000000 ]
    - # atom 5
      - [  0.06776966540078,  0.00000000000000 ]
      - [ -0.06776966540169,  0.00000000000000 ]
      - [ -0.00000000000000,  0.00000000000000 ]
    - # atom 6
      - [ -0.06776966540078,  0.00000000000000 ]
      - [  0.06776966540169,  0.00000000000000 ]
      - [  0.00000000000000,  0.00000000000000 ]
    - # atom 7
      - [ -0.00000000000000,  0.00000000000000 ]
      - [  0.00000000000000,  0.00000000000000 ]
      - [  0.00000000000000,  0.00000000000000 ]
  - # 7
    frequency:     1.5716979242
    eigenvector:
    - # atom 1
      - [ -0.49540446060341,  0.00000000000000 ]
      - [ -0.49540446059679,  0.00000000000000 ]
      - [  0.00022221442141,  0.00000000000000 ]
    - # atom 2
      - [  0.49540446060340,  0.00000000000000 ]
      - [  0.49540446059679,  0.00000000000000 ]
      - [ -0.00022221442141,  0.00000000000000 ]
    - # atom 3
      - [  0.00000000000000,  0.00000000000000 ]
      - [  0.00000000000000,  0.00000000000000 ]
      - [ -0.00000000000000,  0.00000000000000 ]
    - # atom 4
      - [  0.00000000000000,  0.00000000000000 ]
      - [  0.00000000000000,  0.00000000000000 ]
      - [ -0.00000000000000,  0.00000000000000 ]
    - # atom 5
      - [ -0.06763427648598,  0.00000000000000 ]
      - [ -0.06763427648508,  0.00000000000000 ]
      - [ -0.00002728294442,  0.00000000000000 ]
    - # atom 6
      - [  0.06763427648598,  0.00000000000000 ]
      - [  0.06763427648507,  0.00000000000000 ]
      - [  0.00002728294442,  0.00000000000000 ]
    - # atom 7
      - [  0.00000000000000,  0.00000000000000 ]
      - [  0.00000000000000,  0.00000000000000 ]
      - [  0.00000000000000,  0.00000000000000 ]
  - # 8
    frequency:     2.4593513291
    eigenvector:
    - # atom 1
      - [ -0.14928503997621,  0.00000000000000 ]
      - [  0.14928503997619,  0.00000000000000 ]
      - [  0.00000000000000,  0.00000000000000 ]
    - # atom 2
      - [ -0.14928503997621,  0.00000000000000 ]
      - [  0.14928503997619,  0.00000000000000 ]
      - [ -0.00000000000000,  0.00000000000000 ]
    - # atom 3
      - [ -0.06997092494802,  0.00000000000000 ]
      - [ -0.14553404000563,  0.00000000000000 ]
      - [  0.00067330412435,  0.00000000000000 ]
    - # atom 4
      - [  0.14553404000565,  0.00000000000000 ]
      - [  0.06997092494801,  0.00000000000000 ]
      - [ -0.00067330412435,  0.00000000000000 ]
    - # atom 5
      - [ -0.21702847738783,  0.00000000000000 ]
      - [  0.21702847738780,  0.00000000000000 ]
      - [ -0.00000000000000,  0.00000000000000 ]
    - # atom 6
      - [ -0.21702847738783,  0.00000000000000 ]
      - [  0.21702847738780,  0.00000000000000 ]
      - [ -0.00000000000000,  0.00000000000000 ]
    - # atom 7
      - [  0.57892028225587,  0.00000000000000 ]
      - [ -0.57892028225580,  0.00000000000000 ]
      - [  0.00000000000000,  0.00000000000000 ]
  - # 9
    frequency:     2.4695061531
    eigenvector:
    - # atom 1
      - [  0.14904786503354,  0.00000000000000 ]
      - [  0.14904786503356,  0.00000000000000 ]
      - [ -0.00045632587083,  0.00000000000000 ]
    - # atom 2
      - [  0.14904786503354,  0.00000000000000 ]
      - [  0.14904786503356,  0.00000000000000 ]
      - [ -0.00045632587083,  0.00000000000000 ]
    - # atom 3
      - [  0.06764879151350,  0.00000000000000 ]
      - [ -0.14558082266282,  0.00000000000000 ]
      - [  0.00015813046214,  0.00000000000000 ]
    - # atom 4
      - [ -0.14558082266281,  0.00000000000000 ]
      - [  0.06764879151351,  0.00000000000000 ]
      - [  0.00015813046214,  0.00000000000000 ]
    - # atom 5
      - [  0.21830621885550,  0.00000000000000 ]
      - [  0.21830621885552,  0.00000000000000 ]
      - [ -0.00058428874294,  0.00000000000000 ]
    - # atom 6
      - [  0.21830621885550,  0.00000000000000 ]
      - [  0.21830621885552,  0.00000000000000 ]
      - [ -0.00058428874294,  0.00000000000000 ]
    - # atom 7
      - [ -0.57834510353509,  0.00000000000000 ]
      - [ -0.57834510353516,  0.00000000000000 ]
      - [ -0.00098908093580,  0.00000000000000 ]
  - # 10
    frequency:     3.2381139914
    eigenvector:
    - # atom 1
      - [ -0.18944145402692,  0.00000000000000 ]
      - [ -0.18944145402625,  0.00000000000000 ]
      - [  0.00045338815026,  0.00000000000000 ]
    - # atom 2
      - [ -0.18944145402692,  0.00000000000000 ]
      - [ -0.18944145402625,  0.00000000000000 ]
      - [  0.00045338815027,  0.00000000000000 ]
    - # atom 3
      - [  0.63960757472861,  0.00000000000000 ]
      - [  0.12648208286768,  0.00000000000000 ]
      - [ -0.00104759822089,  0.00000000000000 ]
    - # atom 4
      - [  0.12648208286813,  0.00000000000000 ]
      - [  0.63960757472634,  0.00000000000000 ]
      - [ -0.00104759822089,  0.00000000000000 ]
    - # atom 5
      - [  0.03370412406150,  0.00000000000000 ]
      - [  0.03370412406138,  0.00000000000000 ]
      - [ -0.00102800905798,  0.00000000000000 ]
    - # atom 6
      - [  0.03370412406149,  0.00000000000000 ]
      - [  0.03370412406138,  0.00000000000000 ]
      - [ -0.00102800905798,  0.00000000000000 ]
    - # atom 7
      - [ -0.02922246884623,  0.00000000000000 ]
      - [ -0.02922246884613,  0.00000000000000 ]
      - [  0.00033343300904,  0.00000000000000 ]
  - # 11
    frequency:     3.2393361015
    eigenvector:
    - # atom 1
      - [ -0.18932809399419,  0.00000000000000 ]
      - [  0.18932809399486,  0.00000000000000 ]
      - [ -0.00000000000000,  0.00000000000000 ]
    - # atom 2
      - [ -0.18932809399419,  0.00000000000000 ]
      - [  0.18932809399486,  0.00000000000000 ]
      - [ -0.00000000000000,  0.00000000000000 ]
    - # atom 3
      - [  0.63985655756378,  0.00000000000000 ]
      - [ -0.12664887352220,  0.00000000000000 ]
      - [ -0.00026264539580,  0.00000000000000 ]
    - # atom 4
      - [  0.12664887352175,  0.00000000000000 ]
      - [ -0.63985655756605,  0.00000000000000 ]
      - [  0.00026264539580,  0.00000000000000 ]
    - # atom 5
      - [  0.03214809246443,  0.00000000000000 ]
      - [ -0.03214809246454,  0.00000000000000 ]
      - [  0.00000000000000,  0.00000000000000 ]
    - # atom 6
      - [  0.03214809246442,  0.00000000000000 ]
      - [ -0.03214809246454,  0.00000000000000 ]
      - [  0.00000000000000,  0.00000000000000 ]
    - # atom 7
      - [ -0.02804149683551,  0.00000000000000 ]
      - [  0.02804149683561,  0.00000000000000 ]
      - [ -0.00000000000000,  0.00000000000000 ]
  - # 12
    frequency:     3.4241856833
    eigenvector:
    - # atom 1
      - [ -0.00013758424123,  0.00000000000000 ]
      - [ -0.00013758424123,  0.00000000000000 ]
      - [ -0.70710611184545,  0.00000000000000 ]
    - # atom 2
      - [  0.00013758424123,  0.00000000000000 ]
      - [  0.00013758424123,  0.00000000000000 ]
      - [  0.70710611184545,  0.00000000000000 ]
    - # atom 3
      - [ -0.00000000000000,  0.00000000000000 ]
      - [ -0.00000000000000,  0.00000000000000 ]
      - [  0.00000000000000,  0.00000000000000 ]
    - # atom 4
      - [  0.00000000000000,  0.00000000000000 ]
      - [ -0.00000000000000,  0.00000000000000 ]
      - [ -0.00000000000000,  0.00000000000000 ]
    - # atom 5
      - [ -0.00015365107414,  0.00000000000000 ]
      - [ -0.00015365107414,  0.00000000000000 ]
      - [ -0.00092817814042,  0.00000000000000 ]
    - # atom 6
      - [  0.00015365107414,  0.00000000000000 ]
      - [  0.00015365107414,  0.00000000000000 ]
      - [  0.00092817814042,  0.00000000000000 ]
    - # atom 7
      - [  0.00000000000000,  0.00000000000000 ]
      - [  0.00000000000000,  0.00000000000000 ]
      - [  0.00000000000000,  0.00000000000000 ]
  - # 13
    frequency:     3.6322292939
    eigenvector:
    - # atom 1
      - [ -0.06776966540125,  0.00000000000000 ]
      - [  0.06776966540122,  0.00000000000000 ]
      - [  0.00000000000000,  0.00000000000000 ]
    - # atom 2
      - [  0.06776966540125,  0.00000000000000 ]
      - [ -0.06776966540122,  0.00000000000000 ]
      - [  0.00000000000000,  0.00000000000000 ]
    - # atom 3
      - [ -0.00000000000000,  0.00000000000000 ]
      - [  0.00000000000000,  0.00000000000000 ]
      - [  0.00000000000000,  0.00000000000000 ]
    - # atom 4
      - [ -0.00000000000000,  0.00000000000000 ]
      - [ -0.00000000000000,  0.00000000000000 ]
      - [ -0.00000000000000,  0.00000000000000 ]
    - # atom 5
      - [  0.49538598330140,  0.00000000000000 ]
      - [ -0.49538598330122,  0.00000000000000 ]
      - [  0.00000000000000,  0.00000000000000 ]
    - # atom 6
      - [ -0.49538598330140,  0.00000000000000 ]
      - [  0.49538598330122,  0.00000000000000 ]
      - [ -0.00000000000000,  0.00000000000000 ]
    - # atom 7
      - [  0.00000000000000,  0.00000000000000 ]
      - [  0.00000000000000,  0.00000000000000 ]
      - [ -0.00000000000000,  0.00000000000000 ]
  - # 14
    frequency:     3.6343383543
    eigenvector:
    - # atom 1
      - [ -0.06763432095100,  0.00000000000000 ]
      - [ -0.06763432095102,  0.00000000000000 ]
      - [ -0.00018939233654,  0.00000000000000 ]
    - # atom 2
      - [  0.06763432095100,  0.00000000000000 ]
      - [  0.06763432095102,  0.00000000000000 ]
      - [  0.00018939233653,  0.00000000000000 ]
    - # atom 3
      - [ -0.00000000000000,  0.00000000000000 ]
      - [ -0.00000000000000,  0.00000000000000 ]
      - [  0.00000000000000,  0.00000000000000 ]
    - # atom 4
      - [ -0.00000000000000,  0.00000000000000 ]
      - [ -0.00000000000000,  0.00000000000000 ]
      - [  0.00000000000000,  0.00000000000000 ]
    - # atom 5
      - [  0.49540441161697,  0.00000000000000 ]
      - [  0.49540441161716,  0.00000000000000 ]
      - [  0.00031510352580,  0.00000000000000 ]
    - # atom 6
      - [ -0.49540441161697,  0.00000000000000 ]
      - [ -0.49540441161716,  0.00000000000000 ]
      - [ -0.00031510352580,  0.00000000000000 ]
    - # atom 7
      - [ -0.00000000000000,  0.00000000000000 ]
      - [  0.00000000000000,  0.00000000000000 ]
      - [  0.00000000000000,  0.00000000000000 ]
  - # 15
    frequency:     3.7825629849
    eigenvector:
    - # atom 1
      - [ -0.00030611105405,  0.00000000000000 ]
      - [ -0.00030611105406,  0.00000000000000 ]
      - [ -0.46543970646187,  0.00000000000000 ]
    - # atom 2
      - [ -0.00030611105405,  0.00000000000000 ]
      - [ -0.00030611105406,  0.00000000000000 ]
      - [ -0.46543970646187,  0.00000000000000 ]
    - # atom 3
      - [  0.00074195163242,  0.00000000000000 ]
      - [  0.00014863537506,  0.00000000000000 ]
      - [  0.30168242382599,  0.00000000000000 ]
    - # atom 4
      - [  0.00014863537506,  0.00000000000000 ]
      - [  0.00074195163242,  0.00000000000000 ]
      - [  0.30168242382599,  0.00000000000000 ]
    - # atom 5
      - [  0.00023095904520,  0.00000000000000 ]
      - [  0.00023095904519,  0.00000000000000 ]
      - [  0.19019911996885,  0.00000000000000 ]
    - # atom 6
      - [  0.00023095904520,  0.00000000000000 ]
      - [  0.00023095904520,  0.00000000000000 ]
      - [  0.19019911996885,  0.00000000000000 ]
    - # atom 7
      - [ -0.00015437654150,  0.00000000000000 ]
      - [ -0.00015437654150,  0.00000000000000 ]
      - [  0.55888639106228,  0.00000000000000 ]
  - # 16
    frequency:     4.1967311884
    eigenvector:
    - # atom 1
      - [  0.00002050706689, -0.00000000000000 ]
      - [ -0.00002050706689,  0.00000000000000 ]
      - [ -0.00000000000000,  0.00000000000000 ]
    - # atom 2
      - [  0.00002050706689,  0.00000000000000 ]
      - [ -0.00002050706689,  0.00000000000000 ]
      - [ -0.00000000000000,  0.00000000000000 ]
    - # atom 3
      - [ -0.00023487953871,  0.00000000000000 ]
      - [ -0.00008629050246,  0.00000000000000 ]
      - [ -0.70710635424417,  0.00000000000000 ]
    - # atom 4
      - [  0.00008629050246,  0.00000000000000 ]
      - [  0.00023487953871,  0.00000000000000 ]
      - [  0.70710635424417,  0.00000000000000 ]
    - # atom 5
      - [ -0.00038453102313,  0.00000000000000 ]
      - [  0.00038453102313,  0.00000000000000 ]
      - [  0.00000000000000,  0.00000000000000 ]
    - # atom 6
      - [ -0.00038453102313,  0.00000000000000 ]
      - [  0.00038453102313,  0.00000000000000 ]
      - [  0.00000000000000,  0.00000000000000 ]
    - # atom 7
      - [  0.00049457433280,  0.00000000000000 ]
      - [ -0.00049457433280,  0.00000000000000 ]
      - [  0.00000000000000,  0.00000000000000 ]
  - # 17
    frequency:     4.8637258667
    eigenvector:
    - # atom 1
      - [  0.00037814559647,  0.00000000000000 ]
      - [  0.00037814559647,  0.00000000000000 ]
      - [  0.02222206031632,  0.00000000000000 ]
    - # atom 2
      - [  0.00037814559647,  0.00000000000000 ]
      - [  0.00037814559647,  0.00000000000000 ]
      - [  0.02222206031632,  0.00000000000000 ]
    - # atom 3
      - [ -0.00088206675608,  0.00000000000000 ]
      - [ -0.00034447505542,  0.00000000000000 ]
      - [ -0.52882800867283,  0.00000000000000 ]
    - # atom 4
      - [ -0.00034447505542,  0.00000000000000 ]
      - [ -0.00088206675608,  0.00000000000000 ]
      - [ -0.52882800867283,  0.00000000000000 ]
    - # atom 5
      - [ -0.00018208500152,  0.00000000000000 ]
      - [ -0.00018208500152,  0.00000000000000 ]
      - [ -0.07009571061767,  0.00000000000000 ]
    - # atom 6
      - [ -0.00018208500152,  0.00000000000000 ]
      - [ -0.00018208500152,  0.00000000000000 ]
      - [ -0.07009571061767,  0.00000000000000 ]
    - # atom 7
      - [ -0.00061096326018,  0.00000000000000 ]
      - [ -0.00061096326018,  0.00000000000000 ]
      - [  0.65564027690864,  0.00000000000000 ]
  - # 18
    frequency:     8.0526323396
    eigenvector:
    - # atom 1
      - [ -0.00002924118944,  0.00000000000000 ]
      - [ -0.00002924118944,  0.00000000000000 ]
      - [ -0.07042428493419,  0.00000000000000 ]
    - # atom 2
      - [ -0.00002924118944,  0.00000000000000 ]
      - [ -0.00002924118944,  0.00000000000000 ]
      - [ -0.07042428493419,  0.00000000000000 ]
    - # atom 3
      - [  0.00068728157895,  0.00000000000000 ]
      - [ -0.00005247432554,  0.00000000000000 ]
      - [ -0.25384340411166,  0.00000000000000 ]
    - # atom 4
      - [ -0.00005247432554,  0.00000000000000 ]
      - [  0.00068728157895,  0.00000000000000 ]
      - [ -0.25384340411166,  0.00000000000000 ]
    - # atom 5
      - [  0.00005460677662,  0.00000000000000 ]
      - [  0.00005460677662,  0.00000000000000 ]
      - [  0.62770938951796,  0.00000000000000 ]
    - # atom 6
      - [  0.00005460677662,  0.00000000000000 ]
      - [  0.00005460677662,  0.00000000000000 ]
      - [  0.62770938951796,  0.00000000000000 ]
    - # atom 7
      - [ -0.00029694631967,  0.00000000000000 ]
      - [ -0.00029694631967,  0.00000000000000 ]
      - [ -0.27049694131715,  0.00000000000000 ]
  - # 19
    frequency:     9.4285703639
    eigenvector:
    - # atom 1
      - [ -0.00001084422541,  0.00000000000000 ]
      - [ -0.00001084422541,  0.00000000000000 ]
      - [  0.00092808518261,  0.00000000000000 ]
    - # atom 2
      - [  0.00001084422541,  0.00000000000000 ]
      - [  0.00001084422541,  0.00000000000000 ]
      - [ -0.00092808518261,  0.00000000000000 ]
    - # atom 3
      - [ -0.00000000000000,  0.00000000000000 ]
      - [ -0.00000000000000,  0.00000000000000 ]
      - [  0.00000000000000,  0.00000000000000 ]
    - # atom 4
      - [  0.00000000000000,  0.00000000000000 ]
      - [  0.00000000000000,  0.00000000000000 ]
      - [  0.00000000000000,  0.00000000000000 ]
    - # atom 5
      - [  0.00022357543555,  0.00000000000000 ]
      - [  0.00022357543555,  0.00000000000000 ]
      - [ -0.70710610126823,  0.00000000000000 ]
    - # atom 6
      - [ -0.00022357543555,  0.00000000000000 ]
      - [ -0.00022357543555,  0.00000000000000 ]
      - [  0.70710610126822,  0.00000000000000 ]
    - # atom 7
      - [  0.00000000000000,  0.00000000000000 ]
      - [  0.00000000000000,  0.00000000000000 ]
      - [ -0.00000000000000,  0.00000000000000 ]
  - # 20
    frequency:    11.2446111267
    eigenvector:
    - # atom 1
      - [ -0.00224782565145,  0.00000000000000 ]
      - [ -0.00224782565140,  0.00000000000000 ]
      - [ -0.00002615030844,  0.00000000000000 ]
    - # atom 2
      - [ -0.00224782565145,  0.00000000000000 ]
      - [ -0.00224782565140,  0.00000000000000 ]
      - [ -0.00002615030844,  0.00000000000000 ]
    - # atom 3
      - [ -0.13376624362779,  0.00000000000000 ]
      - [  0.65021981015104,  0.00000000000000 ]
      - [  0.00001112107555,  0.00000000000000 ]
    - # atom 4
      - [  0.65021981016529,  0.00000000000000 ]
      - [ -0.13376624362486,  0.00000000000000 ]
      - [  0.00001112107555,  0.00000000000000 ]
    - # atom 5
      - [ -0.06194008931044,  0.00000000000000 ]
      - [ -0.06194008930908,  0.00000000000000 ]
      - [  0.00007799721303,  0.00000000000000 ]
    - # atom 6
      - [ -0.06194008931044,  0.00000000000000 ]
      - [ -0.06194008930908,  0.00000000000000 ]
      - [  0.00007799721303,  0.00000000000000 ]
    - # atom 7
      - [ -0.22723890681276,  0.00000000000000 ]
      - [ -0.22723890680778,  0.00000000000000 ]
      - [ -0.00012741153340,  0.00000000000000 ]
  - # 21
    frequency:    11.2448276165
    eigenvector:
    - # atom 1
      - [ -0.00221320809513,  0.00000000000000 ]
      - [  0.00221320809518,  0.00000000000000 ]
      - [  0.00000000000000,  0.00000000000000 ]
    - # atom 2
      - [ -0.00221320809513,  0.00000000000000 ]
      - [  0.00221320809518,  0.00000000000000 ]
      - [  0.00000000000000,  0.00000000000000 ]
    - # atom 3
      - [ -0.13373716290013,  0.00000000000000 ]
      - [ -0.65021170110182,  0.00000000000000 ]
      - [  0.00003213052321,  0.00000000000000 ]
    - # atom 4
      - [  0.65021170108757,  0.00000000000000 ]
      - [  0.13373716290306,  0.00000000000000 ]
      - [ -0.00003213052321,  0.00000000000000 ]
    - # atom 5
      - [ -0.06200006525310,  0.00000000000000 ]
      - [  0.06200006525446,  0.00000000000000 ]
      - [ -0.00000000000000,  0.00000000000000 ]
    - # atom 6
      - [ -0.06200006525310,  0.00000000000000 ]
      - [  0.06200006525446,  0.00000000000000 ]
      - [ -0.00000000000000,  0.00000000000000 ]
    - # atom 7
      - [ -0.22724722489391,  0.00000000000000 ]
      - [  0.22724722489889,  0.00000000000000 ]
      - [  0.00000000000000,  0.00000000000000 ]
