phonopy:
  version: 2.15.0
  calculator: aims
  frequency_unit_conversion_factor: 15.633302
  symmetry_tolerance: 1.00000e-05
  configuration:
    create_displacements: ".true."
    dim: "2 2 1"
    calculator: "aims"

physical_unit:
  atomic_mass: "AMU"
  length: "angstrom"
  force_constants: "eV/angstrom^2"

space_group:
  type: "I4/mmm"
  number: 139
  Hall_symbol: "-I 4 2"

supercell_matrix:
- [   2,   0,   0 ]
- [   0,   2,   0 ]
- [   0,   0,   1 ]

primitive_cell:
  lattice:
  - [    -2.461039890000000,     2.461039890000000,     7.780713370000000 ] # a
  - [     2.461039890000000,    -2.461039890000000,     7.780713370000000 ] # b
  - [     2.461039890000000,     2.461039890000000,    -7.780713370000000 ] # c
  points:
  - symbol: Ba # 1
    coordinates: [  0.641135570000000,  0.641135570000000,  0.000000000000000 ]
    mass: 137.327000
  - symbol: Ba # 2
    coordinates: [  0.358864430000000,  0.358864430000000,  0.000000000000000 ]
    mass: 137.327000
  - symbol: S  # 3
    coordinates: [  0.500000000000000,  0.000000000000000,  0.500000000000000 ]
    mass: 32.065000
  - symbol: S  # 4
    coordinates: [  0.000000000000000,  0.500000000000000,  0.500000000000000 ]
    mass: 32.065000
  - symbol: S  # 5
    coordinates: [  0.835702150000000,  0.835702150000000,  0.000000000000000 ]
    mass: 32.065000
  - symbol: S  # 6
    coordinates: [  0.164297850000000,  0.164297850000000,  0.000000000000000 ]
    mass: 32.065000
  - symbol: Zr # 7
    coordinates: [  0.000000000000000,  0.000000000000000,  0.000000000000000 ]
    mass: 91.224000
  reciprocal_lattice: # without 2pi
  - [    -0.000000000000000,     0.203166150224408,     0.064261459871770 ] # a*
  - [     0.203166150224408,     0.000000000000000,     0.064261459871770 ] # b*
  - [     0.203166150224408,     0.203166150224408,     0.000000000000000 ] # c*

unit_cell:
  lattice:
  - [    -2.461039890000000,     2.461039890000000,     7.780713370000000 ] # a
  - [     2.461039890000000,    -2.461039890000000,     7.780713370000000 ] # b
  - [     2.461039890000000,     2.461039890000000,    -7.780713370000000 ] # c
  points:
  - symbol: Ba # 1
    coordinates: [  0.641135570000000,  0.641135570000000,  0.000000000000000 ]
    mass: 137.327000
    reduced_to: 1
  - symbol: Ba # 2
    coordinates: [  0.358864430000000,  0.358864430000000,  0.000000000000000 ]
    mass: 137.327000
    reduced_to: 2
  - symbol: S  # 3
    coordinates: [  0.500000000000000,  0.000000000000000,  0.500000000000000 ]
    mass: 32.065000
    reduced_to: 3
  - symbol: S  # 4
    coordinates: [  0.000000000000000,  0.500000000000000,  0.500000000000000 ]
    mass: 32.065000
    reduced_to: 4
  - symbol: S  # 5
    coordinates: [  0.835702150000000,  0.835702150000000,  0.000000000000000 ]
    mass: 32.065000
    reduced_to: 5
  - symbol: S  # 6
    coordinates: [  0.164297850000000,  0.164297850000000,  0.000000000000000 ]
    mass: 32.065000
    reduced_to: 6
  - symbol: Zr # 7
    coordinates: [  0.000000000000000,  0.000000000000000,  0.000000000000000 ]
    mass: 91.224000
    reduced_to: 7

supercell:
  lattice:
  - [    -4.922079780000000,     4.922079780000000,    15.561426740000000 ] # a
  - [     4.922079780000000,    -4.922079780000000,    15.561426740000000 ] # b
  - [     2.461039890000000,     2.461039890000000,    -7.780713370000000 ] # c
  points:
  - symbol: Ba # 1
    coordinates: [  0.320567785000000,  0.320567785000000,  0.000000000000000 ]
    mass: 137.327000
    reduced_to: 1
  - symbol: Ba # 2
    coordinates: [  0.820567785000000,  0.320567785000000,  0.000000000000000 ]
    mass: 137.327000
    reduced_to: 1
  - symbol: Ba # 3
    coordinates: [  0.320567785000000,  0.820567785000000,  0.000000000000000 ]
    mass: 137.327000
    reduced_to: 1
  - symbol: Ba # 4
    coordinates: [  0.820567785000000,  0.820567785000000,  0.000000000000000 ]
    mass: 137.327000
    reduced_to: 1
  - symbol: Ba # 5
    coordinates: [  0.179432215000000,  0.179432215000000,  0.000000000000000 ]
    mass: 137.327000
    reduced_to: 5
  - symbol: Ba # 6
    coordinates: [  0.679432215000000,  0.179432215000000,  0.000000000000000 ]
    mass: 137.327000
    reduced_to: 5
  - symbol: Ba # 7
    coordinates: [  0.179432215000000,  0.679432215000000,  0.000000000000000 ]
    mass: 137.327000
    reduced_to: 5
  - symbol: Ba # 8
    coordinates: [  0.679432215000000,  0.679432215000000,  0.000000000000000 ]
    mass: 137.327000
    reduced_to: 5
  - symbol: S  # 9
    coordinates: [  0.250000000000000,  0.000000000000000,  0.500000000000000 ]
    mass: 32.065000
    reduced_to: 9
  - symbol: S  # 10
    coordinates: [  0.750000000000000,  0.000000000000000,  0.500000000000000 ]
    mass: 32.065000
    reduced_to: 9
  - symbol: S  # 11
    coordinates: [  0.250000000000000,  0.500000000000000,  0.500000000000000 ]
    mass: 32.065000
    reduced_to: 9
  - symbol: S  # 12
    coordinates: [  0.750000000000000,  0.500000000000000,  0.500000000000000 ]
    mass: 32.065000
    reduced_to: 9
  - symbol: S  # 13
    coordinates: [  0.000000000000000,  0.250000000000000,  0.500000000000000 ]
    mass: 32.065000
    reduced_to: 13
  - symbol: S  # 14
    coordinates: [  0.500000000000000,  0.250000000000000,  0.500000000000000 ]
    mass: 32.065000
    reduced_to: 13
  - symbol: S  # 15
    coordinates: [  0.000000000000000,  0.750000000000000,  0.500000000000000 ]
    mass: 32.065000
    reduced_to: 13
  - symbol: S  # 16
    coordinates: [  0.500000000000000,  0.750000000000000,  0.500000000000000 ]
    mass: 32.065000
    reduced_to: 13
  - symbol: S  # 17
    coordinates: [  0.417851075000000,  0.417851075000000,  0.000000000000000 ]
    mass: 32.065000
    reduced_to: 17
  - symbol: S  # 18
    coordinates: [  0.917851075000000,  0.417851075000000,  0.000000000000000 ]
    mass: 32.065000
    reduced_to: 17
  - symbol: S  # 19
    coordinates: [  0.417851075000000,  0.917851075000000,  0.000000000000000 ]
    mass: 32.065000
    reduced_to: 17
  - symbol: S  # 20
    coordinates: [  0.917851075000000,  0.917851075000000,  0.000000000000000 ]
    mass: 32.065000
    reduced_to: 17
  - symbol: S  # 21
    coordinates: [  0.082148925000000,  0.082148925000000,  0.000000000000000 ]
    mass: 32.065000
    reduced_to: 21
  - symbol: S  # 22
    coordinates: [  0.582148925000000,  0.082148925000000,  0.000000000000000 ]
    mass: 32.065000
    reduced_to: 21
  - symbol: S  # 23
    coordinates: [  0.082148925000000,  0.582148925000000,  0.000000000000000 ]
    mass: 32.065000
    reduced_to: 21
  - symbol: S  # 24
    coordinates: [  0.582148925000000,  0.582148925000000,  0.000000000000000 ]
    mass: 32.065000
    reduced_to: 21
  - symbol: Zr # 25
    coordinates: [  0.000000000000000,  0.000000000000000,  0.000000000000000 ]
    mass: 91.224000
    reduced_to: 25
  - symbol: Zr # 26
    coordinates: [  0.500000000000000,  0.000000000000000,  0.000000000000000 ]
    mass: 91.224000
    reduced_to: 25
  - symbol: Zr # 27
    coordinates: [  0.000000000000000,  0.500000000000000,  0.000000000000000 ]
    mass: 91.224000
    reduced_to: 25
  - symbol: Zr # 28
    coordinates: [  0.500000000000000,  0.500000000000000,  0.000000000000000 ]
    mass: 91.224000
    reduced_to: 25

displacements:
- atom:    1
  displacement:
    [  -0.0028873010625394,  0.0028873010625394,  0.0091283615807283 ]
- atom:    1
  displacement:
    [   0.0028873010625394, -0.0028873010625394, -0.0091283615807283 ]
- atom:    1
  displacement:
    [   0.0028873010625394,  0.0028873010625394, -0.0091283615807283 ]
- atom:    1
  displacement:
    [  -0.0028873010625394, -0.0028873010625394,  0.0091283615807283 ]
- atom:    9
  displacement:
    [  -0.0028873010625394,  0.0028873010625394,  0.0091283615807283 ]
- atom:    9
  displacement:
    [   0.0028873010625394, -0.0028873010625394,  0.0091283615807283 ]
- atom:    9
  displacement:
    [   0.0028873010625394,  0.0028873010625394, -0.0091283615807283 ]
- atom:   17
  displacement:
    [  -0.0028873010625394,  0.0028873010625394,  0.0091283615807283 ]
- atom:   17
  displacement:
    [   0.0028873010625394, -0.0028873010625394, -0.0091283615807283 ]
- atom:   17
  displacement:
    [   0.0028873010625394,  0.0028873010625394, -0.0091283615807283 ]
- atom:   17
  displacement:
    [  -0.0028873010625394, -0.0028873010625394,  0.0091283615807283 ]
- atom:   25
  displacement:
    [  -0.0028873010625394,  0.0028873010625394,  0.0091283615807283 ]
- atom:   25
  displacement:
    [   0.0028873010625394,  0.0028873010625394, -0.0091283615807283 ]
