# Thermal properties / unit cell (natom)

unit:
  temperature:   K
  free_energy:   kJ/mol
  entropy:       J/K/mol
  heat_capacity: J/K/mol

natom: 7    
cutoff_frequency: 0.00000
num_modes: 11010048
num_integrated_modes: 10749172

zero_point_energy:      19.0105895

thermal_properties:
- temperature:         0.0000000
  free_energy:        19.0105895
  entropy:             0.0000000
  heat_capacity:       0.0000000
  energy:             19.0105895

- temperature:        10.0000000
  free_energy:        19.0051296
  entropy:             1.8281430
  heat_capacity:       4.3846573
  energy:             19.0234110

- temperature:        20.0000000
  free_energy:        18.9548141
  entropy:             9.1595436
  heat_capacity:      19.7571426
  energy:             19.1380050

- temperature:        30.0000000
  free_energy:        18.8080530
  entropy:            20.6683651
  heat_capacity:      38.2584085
  energy:             19.4281039

- temperature:        40.0000000
  free_energy:        18.5352195
  entropy:            34.0805937
  heat_capacity:      55.4416878
  energy:             19.8984433

- temperature:        50.0000000
  free_energy:        18.1245363
  entropy:            48.0853459
  heat_capacity:      70.2187025
  energy:             20.5288036

- temperature:        60.0000000
  free_energy:        17.5737810
  entropy:            62.0206688
  heat_capacity:      82.6644614
  energy:             21.2950211

- temperature:        70.0000000
  free_energy:        16.8854173
  entropy:            75.5732539
  heat_capacity:      93.1452168
  energy:             22.1755451

- temperature:        80.0000000
  free_energy:        16.0640548
  entropy:            88.6069425
  heat_capacity:     102.0289302
  energy:             23.1526102

- temperature:        90.0000000
  free_energy:        15.1151726
  entropy:           101.0737417
  heat_capacity:     109.6160556
  energy:             24.2118094

- temperature:       100.0000000
  free_energy:        14.0444872
  entropy:           112.9690378
  heat_capacity:     116.1393264
  energy:             25.3413910

- temperature:       110.0000000
  free_energy:        12.8576434
  entropy:           124.3091899
  heat_capacity:     121.7788404
  energy:             26.5316542

- temperature:       120.0000000
  free_energy:        11.5600674
  entropy:           135.1202528
  heat_capacity:     126.6764382
  energy:             27.7744978

- temperature:       130.0000000
  free_energy:        10.1569020
  entropy:           145.4322348
  heat_capacity:     130.9462100
  energy:             29.0630925

- temperature:       140.0000000
  free_energy:         8.6529829
  entropy:           155.2761393
  heat_capacity:     134.6815966
  energy:             30.3916424

- temperature:       150.0000000
  free_energy:         7.0528378
  entropy:           164.6824354
  heat_capacity:     137.9601503
  energy:             31.7552031

- temperature:       160.0000000
  free_energy:         5.3606955
  entropy:           173.6802797
  heat_capacity:     140.8468191
  energy:             33.1495403

- temperature:       170.0000000
  free_energy:         3.5805019
  entropy:           182.2971447
  heat_capacity:     143.3963191
  energy:             34.5710165

- temperature:       180.0000000
  free_energy:         1.7159369
  entropy:           190.5586718
  heat_capacity:     145.6549308
  energy:             36.0164978

- temperature:       190.0000000
  free_energy:        -0.2295666
  entropy:           198.4886503
  heat_capacity:     147.6619117
  energy:             37.4832770

- temperature:       200.0000000
  free_energy:        -2.2528044
  entropy:           206.1090676
  heat_capacity:     149.4506399
  energy:             38.9690091

- temperature:       210.0000000
  free_energy:        -4.3507838
  entropy:           213.4401969
  heat_capacity:     151.0495544
  energy:             40.4716575

- temperature:       220.0000000
  free_energy:        -6.5207065
  entropy:           220.5007057
  heat_capacity:     152.4829360
  energy:             41.9894488

- temperature:       230.0000000
  free_energy:        -8.7599533
  entropy:           227.3077710
  heat_capacity:     153.7715598
  energy:             43.5208340

- temperature:       240.0000000
  free_energy:       -11.0660699
  entropy:           233.8771959
  heat_capacity:     154.9332411
  energy:             45.0644571

- temperature:       250.0000000
  free_energy:       -13.4367537
  entropy:           240.2235227
  heat_capacity:     155.9832926
  energy:             46.6191270

- temperature:       260.0000000
  free_energy:       -15.8698414
  entropy:           246.3601403
  heat_capacity:     156.9349083
  energy:             48.1837950

- temperature:       270.0000000
  free_energy:       -18.3632987
  entropy:           252.2993847
  heat_capacity:     157.7994845
  energy:             49.7575352

- temperature:       280.0000000
  free_energy:       -20.9152092
  entropy:           258.0526317
  heat_capacity:     158.5868906
  energy:             51.3395276

- temperature:       290.0000000
  free_energy:       -23.5237664
  entropy:           263.6303823
  heat_capacity:     159.3056954
  energy:             52.9290445

- temperature:       300.0000000
  free_energy:       -26.1872643
  entropy:           269.0423406
  heat_capacity:     159.9633580
  energy:             54.5254378

- temperature:       310.0000000
  free_energy:       -28.9040906
  entropy:           274.2974845
  heat_capacity:     160.5663884
  energy:             56.1281296

- temperature:       320.0000000
  free_energy:       -31.6727191
  entropy:           279.4041302
  heat_capacity:     161.1204828
  energy:             57.7366026

- temperature:       330.0000000
  free_energy:       -34.4917039
  entropy:           284.3699904
  heat_capacity:     161.6306384
  energy:             59.3503929

- temperature:       340.0000000
  free_energy:       -37.3596735
  entropy:           289.2022268
  heat_capacity:     162.1012501
  energy:             60.9690836

- temperature:       350.0000000
  free_energy:       -40.2753253
  entropy:           293.9074981
  heat_capacity:     162.5361928
  energy:             62.5922990

- temperature:       360.0000000
  free_energy:       -43.2374210
  entropy:           298.4920027
  heat_capacity:     162.9388908
  energy:             64.2197000

- temperature:       370.0000000
  free_energy:       -46.2447821
  entropy:           302.9615179
  heat_capacity:     163.3123782
  energy:             65.8509795

- temperature:       380.0000000
  free_energy:       -49.2962861
  entropy:           307.3214349
  heat_capacity:     163.6593489
  energy:             67.4858592

- temperature:       390.0000000
  free_energy:       -52.3908623
  entropy:           311.5767909
  heat_capacity:     163.9822007
  energy:             69.1240861

- temperature:       400.0000000
  free_energy:       -55.5274891
  entropy:           315.7322976
  heat_capacity:     164.2830720
  energy:             70.7654300

- temperature:       410.0000000
  free_energy:       -58.7051902
  entropy:           319.7923680
  heat_capacity:     164.5638747
  energy:             72.4096807

- temperature:       420.0000000
  free_energy:       -61.9230321
  entropy:           323.7611391
  heat_capacity:     164.8263212
  energy:             74.0566463

- temperature:       430.0000000
  free_energy:       -65.1801216
  entropy:           327.6424946
  heat_capacity:     165.0719486
  energy:             75.7061511

- temperature:       440.0000000
  free_energy:       -68.4756028
  entropy:           331.4400833
  heat_capacity:     165.3021394
  energy:             77.3580338

- temperature:       450.0000000
  free_energy:       -71.8086555
  entropy:           335.1573379
  heat_capacity:     165.5181391
  energy:             79.0121466

- temperature:       460.0000000
  free_energy:       -75.1784926
  entropy:           338.7974906
  heat_capacity:     165.7210725
  energy:             80.6683531

- temperature:       470.0000000
  free_energy:       -78.5843585
  entropy:           342.3635880
  heat_capacity:     165.9119566
  energy:             82.3265279

- temperature:       480.0000000
  free_energy:       -82.0255271
  entropy:           345.8585047
  heat_capacity:     166.0917132
  energy:             83.9865551

- temperature:       490.0000000
  free_energy:       -85.5013004
  entropy:           349.2849555
  heat_capacity:     166.2611784
  energy:             85.6483278

- temperature:       500.0000000
  free_energy:       -89.0110066
  entropy:           352.6455070
  heat_capacity:     166.4211128
  energy:             87.3117469

- temperature:       510.0000000
  free_energy:       -92.5539990
  entropy:           355.9425874
  heat_capacity:     166.5722086
  energy:             88.9767206

- temperature:       520.0000000
  free_energy:       -96.1296544
  entropy:           359.1784965
  heat_capacity:     166.7150973
  energy:             90.6431638

- temperature:       530.0000000
  free_energy:       -99.7373723
  entropy:           362.3554140
  heat_capacity:     166.8503556
  energy:             92.3109972

- temperature:       540.0000000
  free_energy:      -103.3765730
  entropy:           365.4754077
  heat_capacity:     166.9785110
  energy:             93.9801472

- temperature:       550.0000000
  free_energy:      -107.0466972
  entropy:           368.5404410
  heat_capacity:     167.1000468
  energy:             95.6505453

- temperature:       560.0000000
  free_energy:      -110.7472048
  entropy:           371.5523792
  heat_capacity:     167.2154063
  energy:             97.3221275

- temperature:       570.0000000
  free_energy:      -114.4775738
  entropy:           374.5129964
  heat_capacity:     167.3249966
  energy:             98.9948342

- temperature:       580.0000000
  free_energy:      -118.2372993
  entropy:           377.4239807
  heat_capacity:     167.4291924
  energy:            100.6686095

- temperature:       590.0000000
  free_energy:      -122.0258933
  entropy:           380.2869399
  heat_capacity:     167.5283385
  energy:            102.3434012

- temperature:       600.0000000
  free_energy:      -125.8428831
  entropy:           383.1034061
  heat_capacity:     167.6227529
  energy:            104.0191605

- temperature:       610.0000000
  free_energy:      -129.6878113
  entropy:           385.8748407
  heat_capacity:     167.7127294
  energy:            105.6958415

- temperature:       620.0000000
  free_energy:      -133.5602345
  entropy:           388.6026383
  heat_capacity:     167.7985394
  energy:            107.3734012

- temperature:       630.0000000
  free_energy:      -137.4597231
  entropy:           391.2881306
  heat_capacity:     167.8804339
  energy:            109.0517992

- temperature:       640.0000000
  free_energy:      -141.3858604
  entropy:           393.9325906
  heat_capacity:     167.9586457
  energy:            110.7309976

- temperature:       650.0000000
  free_energy:      -145.3382422
  entropy:           396.5372350
  heat_capacity:     168.0333905
  energy:            112.4109606

- temperature:       660.0000000
  free_energy:      -149.3164762
  entropy:           399.1032284
  heat_capacity:     168.1048687
  energy:            114.0916545

- temperature:       670.0000000
  free_energy:      -153.3201816
  entropy:           401.6316856
  heat_capacity:     168.1732665
  energy:            115.7730477

- temperature:       680.0000000
  free_energy:      -157.3489884
  entropy:           404.1236743
  heat_capacity:     168.2387571
  energy:            117.4551102

- temperature:       690.0000000
  free_energy:      -161.4025370
  entropy:           406.5802183
  heat_capacity:     168.3015017
  energy:            119.1378137

- temperature:       700.0000000
  free_energy:      -165.4804779
  entropy:           409.0022992
  heat_capacity:     168.3616508
  energy:            120.8211316

- temperature:       710.0000000
  free_energy:      -169.5824712
  entropy:           411.3908588
  heat_capacity:     168.4193445
  energy:            122.5050385

- temperature:       720.0000000
  free_energy:      -173.7081863
  entropy:           413.7468014
  heat_capacity:     168.4747138
  energy:            124.1895107

- temperature:       730.0000000
  free_energy:      -177.8573014
  entropy:           416.0709957
  heat_capacity:     168.5278812
  energy:            125.8745255

- temperature:       740.0000000
  free_energy:      -182.0295032
  entropy:           418.3642764
  heat_capacity:     168.5789611
  energy:            127.5600614

- temperature:       750.0000000
  free_energy:      -186.2244866
  entropy:           420.6274462
  heat_capacity:     168.6280607
  energy:            129.2460981

- temperature:       760.0000000
  free_energy:      -190.4419543
  entropy:           422.8612772
  heat_capacity:     168.6752806
  energy:            130.9326163

- temperature:       770.0000000
  free_energy:      -194.6816168
  entropy:           425.0665124
  heat_capacity:     168.7207148
  energy:            132.6195977

- temperature:       780.0000000
  free_energy:      -198.9431916
  entropy:           427.2438674
  heat_capacity:     168.7644519
  energy:            134.3070250

- temperature:       790.0000000
  free_energy:      -203.2264035
  entropy:           429.3940315
  heat_capacity:     168.8065748
  energy:            135.9948814

- temperature:       800.0000000
  free_energy:      -207.5309839
  entropy:           431.5176690
  heat_capacity:     168.8471616
  energy:            137.6831513

- temperature:       810.0000000
  free_energy:      -211.8566706
  entropy:           433.6154202
  heat_capacity:     168.8862856
  energy:            139.3718198

- temperature:       820.0000000
  free_energy:      -216.2032080
  entropy:           435.6879030
  heat_capacity:     168.9240161
  energy:            141.0608724

- temperature:       830.0000000
  free_energy:      -220.5703464
  entropy:           437.7357134
  heat_capacity:     168.9604180
  energy:            142.7502956

- temperature:       840.0000000
  free_energy:      -224.9578420
  entropy:           439.7594268
  heat_capacity:     168.9955528
  energy:            144.4400765

- temperature:       850.0000000
  free_energy:      -229.3654565
  entropy:           441.7595990
  heat_capacity:     169.0294782
  energy:            146.1302027

- temperature:       860.0000000
  free_energy:      -233.7929573
  entropy:           443.7367669
  heat_capacity:     169.0622489
  energy:            147.8206623

- temperature:       870.0000000
  free_energy:      -238.2401169
  entropy:           445.6914493
  heat_capacity:     169.0939165
  energy:            149.5114440

- temperature:       880.0000000
  free_energy:      -242.7067130
  entropy:           447.6241478
  heat_capacity:     169.1245297
  energy:            151.2025371

- temperature:       890.0000000
  free_energy:      -247.1925282
  entropy:           449.5353476
  heat_capacity:     169.1541347
  energy:            152.8939312

- temperature:       900.0000000
  free_energy:      -251.6973499
  entropy:           451.4255182
  heat_capacity:     169.1827749
  energy:            154.5856165

- temperature:       910.0000000
  free_energy:      -256.2209700
  entropy:           453.2951139
  heat_capacity:     169.2104918
  energy:            156.2775836

- temperature:       920.0000000
  free_energy:      -260.7631850
  entropy:           455.1445744
  heat_capacity:     169.2373244
  energy:            157.9698234

- temperature:       930.0000000
  free_energy:      -265.3237958
  entropy:           456.9743259
  heat_capacity:     169.2633098
  energy:            159.6623273

- temperature:       940.0000000
  free_energy:      -269.9026072
  entropy:           458.7847810
  heat_capacity:     169.2884831
  energy:            161.3550869

- temperature:       950.0000000
  free_energy:      -274.4994284
  entropy:           460.5763397
  heat_capacity:     169.3128777
  energy:            163.0480944

- temperature:       960.0000000
  free_energy:      -279.1140723
  entropy:           462.3493899
  heat_capacity:     169.3365254
  energy:            164.7413420

- temperature:       970.0000000
  free_energy:      -283.7463558
  entropy:           464.1043075
  heat_capacity:     169.3594561
  energy:            166.4348225

- temperature:       980.0000000
  free_energy:      -288.3960992
  entropy:           465.8414572
  heat_capacity:     169.3816984
  energy:            168.1285288

- temperature:       990.0000000
  free_energy:      -293.0631269
  entropy:           467.5611930
  heat_capacity:     169.4032796
  energy:            169.8224542

- temperature:      1000.0000000
  free_energy:      -297.7472662
  entropy:           469.2638585
  heat_capacity:     169.4242255
  energy:            171.5165923

- temperature:      1010.0000000
  free_energy:      -302.4483482
  entropy:           470.9497871
  heat_capacity:     169.4445606
  energy:            173.2109367

- temperature:      1020.0000000
  free_energy:      -307.1662072
  entropy:           472.6193027
  heat_capacity:     169.4643085
  energy:            174.9054815

- temperature:      1030.0000000
  free_energy:      -311.9006806
  entropy:           474.2727200
  heat_capacity:     169.4834915
  energy:            176.6002210

- temperature:      1040.0000000
  free_energy:      -316.6516090
  entropy:           475.9103448
  heat_capacity:     169.5021308
  energy:            178.2951496

- temperature:      1050.0000000
  free_energy:      -321.4188359
  entropy:           477.5324740
  heat_capacity:     169.5202467
  energy:            179.9902619

- temperature:      1060.0000000
  free_energy:      -326.2022078
  entropy:           479.1393968
  heat_capacity:     169.5378586
  energy:            181.6855528

- temperature:      1070.0000000
  free_energy:      -331.0015741
  entropy:           480.7313939
  heat_capacity:     169.5549850
  energy:            183.3810174

- temperature:      1080.0000000
  free_energy:      -335.8167868
  entropy:           482.3087387
  heat_capacity:     169.5716434
  energy:            185.0766510

- temperature:      1090.0000000
  free_energy:      -340.6477009
  entropy:           483.8716969
  heat_capacity:     169.5878508
  energy:            186.7724488

- temperature:      1100.0000000
  free_energy:      -345.4941737
  entropy:           485.4205274
  heat_capacity:     169.6036232
  energy:            188.4684065

- temperature:      1110.0000000
  free_energy:      -350.3560652
  entropy:           486.9554820
  heat_capacity:     169.6189759
  energy:            190.1645199

- temperature:      1120.0000000
  free_energy:      -355.2332379
  entropy:           488.4768059
  heat_capacity:     169.6339238
  energy:            191.8607847

- temperature:      1130.0000000
  free_energy:      -360.1255567
  entropy:           489.9847378
  heat_capacity:     169.6484809
  energy:            193.5571970

- temperature:      1140.0000000
  free_energy:      -365.0328888
  entropy:           491.4795104
  heat_capacity:     169.6626607
  energy:            195.2537530

- temperature:      1150.0000000
  free_energy:      -369.9551038
  entropy:           492.9613502
  heat_capacity:     169.6764760
  energy:            196.9504490

- temperature:      1160.0000000
  free_energy:      -374.8920734
  entropy:           494.4304783
  heat_capacity:     169.6899392
  energy:            198.6472814

- temperature:      1170.0000000
  free_energy:      -379.8436717
  entropy:           495.8871097
  heat_capacity:     169.7030621
  energy:            200.3442467

- temperature:      1180.0000000
  free_energy:      -384.8097746
  entropy:           497.3314544
  heat_capacity:     169.7158561
  energy:            202.0413415

- temperature:      1190.0000000
  free_energy:      -389.7902605
  entropy:           498.7637170
  heat_capacity:     169.7283321
  energy:            203.7385627

- temperature:      1200.0000000
  free_energy:      -394.7850094
  entropy:           500.1840971
  heat_capacity:     169.7405005
  energy:            205.4359072

- temperature:      1210.0000000
  free_energy:      -399.7939035
  entropy:           501.5927894
  heat_capacity:     169.7523713
  energy:            207.1333718

- temperature:      1220.0000000
  free_energy:      -404.8168268
  entropy:           502.9899840
  heat_capacity:     169.7639540
  energy:            208.8309536

- temperature:      1230.0000000
  free_energy:      -409.8536654
  entropy:           504.3758661
  heat_capacity:     169.7752580
  energy:            210.5286499

- temperature:      1240.0000000
  free_energy:      -414.9043071
  entropy:           505.7506169
  heat_capacity:     169.7862921
  energy:            212.2264579

- temperature:      1250.0000000
  free_energy:      -419.9686413
  entropy:           507.1144129
  heat_capacity:     169.7970647
  energy:            213.9243749

- temperature:      1260.0000000
  free_energy:      -425.0465594
  entropy:           508.4674267
  heat_capacity:     169.8075841
  energy:            215.6223983

- temperature:      1270.0000000
  free_energy:      -430.1379544
  entropy:           509.8098269
  heat_capacity:     169.8178581
  energy:            217.3205257

- temperature:      1280.0000000
  free_energy:      -435.2427211
  entropy:           511.1417780
  heat_capacity:     169.8278943
  energy:            219.0187547

- temperature:      1290.0000000
  free_energy:      -440.3607557
  entropy:           512.4634407
  heat_capacity:     169.8376999
  energy:            220.7170829

- temperature:      1300.0000000
  free_energy:      -445.4919561
  entropy:           513.7749724
  heat_capacity:     169.8472820
  energy:            222.4155080

- temperature:      1310.0000000
  free_energy:      -450.6362219
  entropy:           515.0765264
  heat_capacity:     169.8566472
  energy:            224.1140278

- temperature:      1320.0000000
  free_energy:      -455.7934539
  entropy:           516.3682531
  heat_capacity:     169.8658021
  energy:            225.8126402

- temperature:      1330.0000000
  free_energy:      -460.9635547
  entropy:           517.6502991
  heat_capacity:     169.8747528
  energy:            227.5113431

- temperature:      1340.0000000
  free_energy:      -466.1464281
  entropy:           518.9228080
  heat_capacity:     169.8835055
  energy:            229.2101346

- temperature:      1350.0000000
  free_energy:      -471.3419795
  entropy:           520.1859201
  heat_capacity:     169.8920658
  energy:            230.9090126

- temperature:      1360.0000000
  free_energy:      -476.5501156
  entropy:           521.4397727
  heat_capacity:     169.9004395
  energy:            232.6079753

- temperature:      1370.0000000
  free_energy:      -481.7707445
  entropy:           522.6845002
  heat_capacity:     169.9086317
  energy:            234.3070208

- temperature:      1380.0000000
  free_energy:      -487.0037756
  entropy:           523.9202340
  heat_capacity:     169.9166479
  energy:            236.0061473

- temperature:      1390.0000000
  free_energy:      -492.2491197
  entropy:           525.1471028
  heat_capacity:     169.9244928
  energy:            237.7053532

- temperature:      1400.0000000
  free_energy:      -497.5066886
  entropy:           526.3652323
  heat_capacity:     169.9321715
  energy:            239.4046366

- temperature:      1410.0000000
  free_energy:      -502.7763956
  entropy:           527.5747459
  heat_capacity:     169.9396885
  energy:            241.1039961

- temperature:      1420.0000000
  free_energy:      -508.0581552
  entropy:           528.7757641
  heat_capacity:     169.9470483
  energy:            242.8034299

- temperature:      1430.0000000
  free_energy:      -513.3518830
  entropy:           529.9684052
  heat_capacity:     169.9542553
  energy:            244.5029365

- temperature:      1440.0000000
  free_energy:      -518.6574957
  entropy:           531.1527849
  heat_capacity:     169.9613137
  energy:            246.2025145

- temperature:      1450.0000000
  free_energy:      -523.9749115
  entropy:           532.3290164
  heat_capacity:     169.9682276
  energy:            247.9021623

- temperature:      1460.0000000
  free_energy:      -529.3040493
  entropy:           533.4972109
  heat_capacity:     169.9750007
  energy:            249.6018786

- temperature:      1470.0000000
  free_energy:      -534.6448293
  entropy:           534.6574770
  heat_capacity:     169.9816370
  energy:            251.3016619

- temperature:      1480.0000000
  free_energy:      -539.9971727
  entropy:           535.8099214
  heat_capacity:     169.9881401
  energy:            253.0015109

- temperature:      1490.0000000
  free_energy:      -545.3610020
  entropy:           536.9546485
  heat_capacity:     169.9945135
  energy:            254.7014242

- temperature:      1500.0000000
  free_energy:      -550.7362403
  entropy:           538.0917607
  heat_capacity:     170.0007606
  energy:            256.4014007

- temperature:      1510.0000000
  free_energy:      -556.1228121
  entropy:           539.2213584
  heat_capacity:     170.0068848
  energy:            258.1014391

- temperature:      1520.0000000
  free_energy:      -561.5206428
  entropy:           540.3435400
  heat_capacity:     170.0128893
  energy:            259.8015380

- temperature:      1530.0000000
  free_energy:      -566.9296585
  entropy:           541.4584020
  heat_capacity:     170.0187770
  energy:            261.5016964

- temperature:      1540.0000000
  free_energy:      -572.3497867
  entropy:           542.5660389
  heat_capacity:     170.0245512
  energy:            263.2019132

- temperature:      1550.0000000
  free_energy:      -577.7809556
  entropy:           543.6665436
  heat_capacity:     170.0302145
  energy:            264.9021871

- temperature:      1560.0000000
  free_energy:      -583.2230941
  entropy:           544.7600072
  heat_capacity:     170.0357700
  energy:            266.6025171

- temperature:      1570.0000000
  free_energy:      -588.6761325
  entropy:           545.8465189
  heat_capacity:     170.0412202
  energy:            268.3029022

- temperature:      1580.0000000
  free_energy:      -594.1400016
  entropy:           546.9261663
  heat_capacity:     170.0465678
  energy:            270.0033412

- temperature:      1590.0000000
  free_energy:      -599.6146333
  entropy:           547.9990355
  heat_capacity:     170.0518154
  energy:            271.7038332

- temperature:      1600.0000000
  free_energy:      -605.0999600
  entropy:           549.0652107
  heat_capacity:     170.0569655
  energy:            273.4043772

- temperature:      1610.0000000
  free_energy:      -610.5959154
  entropy:           550.1247749
  heat_capacity:     170.0620204
  energy:            275.1049722

- temperature:      1620.0000000
  free_energy:      -616.1024338
  entropy:           551.1778093
  heat_capacity:     170.0669824
  energy:            276.8056173

- temperature:      1630.0000000
  free_energy:      -621.6194501
  entropy:           552.2243936
  heat_capacity:     170.0718539
  energy:            278.5063115

- temperature:      1640.0000000
  free_energy:      -627.1469004
  entropy:           553.2646064
  heat_capacity:     170.0766371
  energy:            280.2070540

- temperature:      1650.0000000
  free_energy:      -632.6847213
  entropy:           554.2985244
  heat_capacity:     170.0813339
  energy:            281.9078440

- temperature:      1660.0000000
  free_energy:      -638.2328502
  entropy:           555.3262232
  heat_capacity:     170.0859466
  energy:            283.6086804

- temperature:      1670.0000000
  free_energy:      -643.7912252
  entropy:           556.3477772
  heat_capacity:     170.0904770
  energy:            285.3095626

- temperature:      1680.0000000
  free_energy:      -649.3597855
  entropy:           557.3632590
  heat_capacity:     170.0949272
  energy:            287.0104897

- temperature:      1690.0000000
  free_energy:      -654.9384704
  entropy:           558.3727404
  heat_capacity:     170.0992990
  energy:            288.7114609

- temperature:      1700.0000000
  free_energy:      -660.5272205
  entropy:           559.3762917
  heat_capacity:     170.1035943
  energy:            290.4124754

- temperature:      1710.0000000
  free_energy:      -666.1259767
  entropy:           560.3739820
  heat_capacity:     170.1078148
  energy:            292.1135325

- temperature:      1720.0000000
  free_energy:      -671.7346808
  entropy:           561.3658793
  heat_capacity:     170.1119622
  energy:            293.8146315

- temperature:      1730.0000000
  free_energy:      -677.3532752
  entropy:           562.3520502
  heat_capacity:     170.1160382
  energy:            295.5157715

- temperature:      1740.0000000
  free_energy:      -682.9817030
  entropy:           563.3325603
  heat_capacity:     170.1200445
  energy:            297.2169520

- temperature:      1750.0000000
  free_energy:      -688.6199078
  entropy:           564.3074743
  heat_capacity:     170.1239826
  energy:            298.9181722

- temperature:      1760.0000000
  free_energy:      -694.2678340
  entropy:           565.2768554
  heat_capacity:     170.1278541
  energy:            300.6194315

- temperature:      1770.0000000
  free_energy:      -699.9254266
  entropy:           566.2407659
  heat_capacity:     170.1316605
  energy:            302.3207291

- temperature:      1780.0000000
  free_energy:      -705.5926313
  entropy:           567.1992673
  heat_capacity:     170.1354031