  1.6871231e+00   5.1608618e-04
  2.0698789e-03   6.9687527e-04
 -2.1436134e-02   1.3700648e-03
  9.2022979e-01   1.0192873e-03
 -1.2986550e+00   2.8624499e-04
 -3.6666722e-03   2.0325414e-03
 -1.7624393e-01   2.1120941e-04
  2.2046667e-01   1.4051303e-03
  1.4968169e-03   1.3875405e-03
 -3.1523212e-04   1.2209131e-03
  1.1466369e-02   3.1480801e-03
  1.4005838e-02   1.3701161e-03
  1.5019543e-02   6.7362119e-04
 -5.7983736e-04   6.3499622e-04
 -1.7060852e-03   8.6453120e-04
 -2.2605043e-02   8.6805399e-04
 -2.1030067e-01   1.3330164e-03
  2.1502219e-02   8.0343499e-04
 -5.6637344e-03   1.0546307e-03
  1.1314249e-03   2.6886228e-03
  1.8228050e-03   5.0624978e-04
  4.6171650e-02   2.2923269e-03
  1.9585274e-03   1.3801930e-03
 -1.2723079e-03   1.1389997e-03
 -2.0991489e-03   1.9132197e-03
 -2.4287787e-04   2.0468927e-03
  2.1824653e-03   1.4783796e-03
 -2.0283714e-03   1.2113868e-03
  1.2734637e-03   1.3731718e-03
 -2.4423897e-03   8.7455957e-04
 -8.9989346e-01   2.0998449e-04
  4.4149436e-02   1.6547361e-04
  1.2427768e+00   7.2158052e-04
  8.1127536e-01   1.0010726e-03
 -3.2434441e-04   2.0840878e-04
  1.5971273e-03   1.1225165e-03
 -7.3976070e-01   5.0632784e-04
  2.2388624e-01   6.8342412e-04
  1.5972689e-02   1.6650695e-03
 -3.3203588e-04   8.7248866e-04
  3.5976726e-03   1.2633494e-03
  1.0493080e-01   1.1144610e-03
  1.3518818e-01   2.9645949e-03
 -1.9967787e-03   1.3851187e-03
 -2.8280781e-03   4.5399874e-04
 -5.2395281e-03   1.2929585e-03
  2.1017122e-01   8.7194901e-05
 -3.3857657e-03   1.0313208e-03
 -2.1261408e-03   1.6258328e-03
 -1.1465658e-03   2.3136309e-03
 -1.5289749e-03   1.6026079e-03
  2.2090130e-01   2.8065429e-03
 -6.9801719e-04   3.8299337e-04
 -8.0509728e-01   6.9442519e-04
 -4.1623767e-03   1.1250769e-03
 -1.3450303e-02   8.1414363e-04
 -8.2967948e-04   1.8306404e-03
  1.2688739e-02   1.3585268e-03
  2.7168740e-04   7.5483386e-04
 -7.3309755e-04   1.1577151e-03
 -1.4520001e-02   5.3342362e-04
  2.5119193e-04   7.4809109e-04
  2.1523731e-03   4.8035907e-04
 -1.9290550e-01   9.8266092e-04
  8.9169424e-03   6.6785887e-04
 -1.4372382e-02   3.7615030e-04
  1.5389837e-01   3.6971908e-04
  1.3679732e-03   1.0348433e-03
 -9.6457498e-04   1.7268868e-03
 -4.7723493e-03   5.5377476e-04
 -5.2513541e-03   7.1562175e-04
 -3.2770475e-03   6.9644558e-04
 -7.9997806e-03   2.4504689e-03
 -1.1419888e-03   1.0130639e-03
 -1.5974350e-03   1.0785905e-03
  7.0107765e-03   1.3334632e-03
 -2.2115146e-03   1.0617630e-03
  9.1410149e-04   1.1990309e-03
  6.6024635e-04   2.0884413e-03
  3.5316814e-03   7.0190144e-04
 -1.4899317e-03   1.8743981e-03
  5.0737377e-04   6.1597215e-04
 -3.0151454e-03   9.5816766e-04
 -5.6387447e-03   1.1049492e-03
 -3.5173146e-03   1.2718079e-03
  5.5423734e-04   1.0198839e-03
 -1.0695305e-03   1.7757647e-03
 -6.0646418e-03   4.3445200e-04
 -1.0541398e-03   1.2706813e-03
 -6.6955696e-04   9.3216292e-04
 -6.4292462e-03   6.5530348e-04
  7.8679826e-03   1.4329389e-03
  1.1699809e-02   1.2756742e-03
 -6.0465321e-04   1.3346076e-03
  2.8751916e-03   6.9352565e-04
 -6.7533099e-04   9.5172686e-04
  3.3057479e-03   2.6902815e-04
  4.8102351e-04   3.8025944e-04
 -1.8053129e-03   1.0363162e-03
  5.3969328e-03   1.2579655e-03
  3.9360116e-04   1.9628892e-03
 -4.3542846e-03   1.2700477e-03
 -1.8090846e-02   2.4426617e-03
  8.3026954e-04   1.2481535e-03
  1.3443456e-03   2.9646794e-03
  6.5367464e-03   1.0302226e-03
 -8.4243517e-04   1.2313053e-03
 -4.7073088e-05   1.1352388e-03
  1.5942414e-03   1.8068971e-03
  6.3302526e-03   5.2388018e-04
  7.1019668e-04   1.3460407e-03
 -1.5814684e-02   2.2598922e-03
  1.5649421e-03   8.1173674e-04
  1.3736784e-02   1.3463197e-03
 -8.7875617e-04   1.1132747e-03
  1.6999511e-03   1.4806277e-03
 -1.7818775e-04   6.3261634e-04
 -2.5008670e-03   1.1828835e-03
  2.2003399e-03   1.0343526e-03
 -3.6995718e-04   1.5961836e-03
 -2.2359988e-02   1.8691763e-04
  8.8918552e-02   5.3099135e-04
  1.0689000e+00   4.3652329e-04
 -4.0925062e-01   1.4825442e-03
 -5.1133996e-01   2.1095661e-04
 -4.9209200e-02   1.7354514e-03
  2.2622114e-01   2.0216616e-04
 -1.4728417e-03   7.9959753e-04
  2.7701055e-04   1.1642419e-03
 -1.8542006e-03   8.0008921e-04
  1.3690283e-02   1.4909671e-03
  1.0732211e-02   1.0997762e-03
 -4.5489725e-01   7.7344372e-04
  2.1488848e-03   7.2689127e-04
 -2.6912293e-03   1.7317901e-03
  8.0232507e-01   8.9332234e-04
 -1.1621181e-01   5.8536394e-04
 -3.2680260e-03   1.3479399e-03
 -5.6959537e-04   6.9718657e-04
 -5.6047947e-03   1.1379144e-03
 -7.7403975e-03   9.5164764e-04
 -1.4742064e-01   8.9071511e-04
 -2.1673585e-03   1.4659214e-03
 -9.5743183e-03   1.7486594e-03
 -1.6985207e-03   1.0802533e-03
  3.1697408e-03   1.3063984e-03
  1.0090679e-02   1.2547364e-03
 -3.6315586e-02   2.6139747e-03
 -2.5311671e-03   1.3151624e-03
  1.0178852e-03   1.7722080e-03
  1.0417193e+00   1.0251370e-04
  2.4851917e-01   9.9974021e-04
 -7.8939325e-01   2.6497181e-04
  1.9889204e-03   1.9737408e-03
 -1.0377246e-02   7.6800375e-04
 -1.5468685e-03   1.6726241e-03
  5.2207557e-05   3.9902882e-04
  1.8671629e-03   8.0761279e-04
  2.0534748e-03   2.5503614e-03
 -4.7217952e-03   1.3646461e-03
  6.4126780e-04   1.2403652e-03
 -5.1543890e-03   7.9590431e-04
  6.1041457e-03   8.0421963e-04
  3.1014374e-03   1.7457592e-03
 -7.4102092e-03   1.9454194e-03
 -1.2064570e-03   2.0907121e-03
  1.8049282e-01   7.7895523e-04
  7.6736677e-03   7.7373441e-04
  8.5559534e-04   2.1445346e-03
 -4.0185042e-03   1.0711425e-03
  5.5868565e-03   9.3792460e-04
 -1.4967981e-03   2.1121535e-03
  2.3719019e-03   1.5935866e-03
  1.3048145e-03   4.5587038e-04
 -4.5324219e-03   1.5354863e-03
  4.3699122e-03   1.0078386e-03
 -5.8363243e-03   2.3444199e-04
  2.3486940e-03   7.3494390e-04
  1.3962259e-03   1.4652113e-03
  3.8690094e-04   1.7226856e-03
  3.8120621e-03   1.9808596e-03
  7.8152877e-04   1.9482725e-03
 -5.7083555e-03   1.8954102e-03
 -1.0407680e-02   1.4302597e-03
  4.8982468e-04   6.2089000e-04
  2.0391238e-03   1.1046203e-03
 -2.6266562e-04   1.8434132e-03
 -3.8194194e-05   7.0392824e-04
  3.2218297e-03   6.2768790e-04
 -5.6582550e-03   1.0525667e-03
 -2.9888174e-03   1.7571974e-03
  7.3790741e-03   7.5626647e-04
  9.7240775e-04   2.2219366e-03
 -1.1095570e-02   1.2355298e-03
  1.9459832e-03   2.0686237e-03
  2.6610534e-05   1.0591889e-03
 -3.5999645e-03   1.5749137e-03
  5.5443926e-04   7.8463042e-04
  6.0227020e-03   9.2310674e-04
 -5.9993062e-03   1.4739594e-03
  1.0692750e-03   7.4255979e-04
  6.8247556e-03   2.4309952e-03
  1.3276200e-03   7.5936015e-04
  2.9842784e-03   1.9930224e-03
 -4.5917197e-03   1.6845202e-03
 -6.4759776e-03   2.1806881e-03
  1.3239858e-03   6.9644925e-04
 -4.0268558e-03   8.2835479e-04
 -1.0824532e-03   7.4729003e-04
  5.0875731e-03   2.3028164e-03
 -2.2123799e+00   1.1358670e-04
 -1.8112417e-01   9.0681022e-04
 -2.6002796e-03   1.2249388e-03
 -6.3131481e-01   1.7476010e-03
  2.1248090e+00   4.4911250e-04
 -1.2121251e-05   2.0552778e-03
  9.4986987e-01   3.3058974e-04
 -3.3293289e-01   1.7431227e-03
  9.6913509e-04   6.9296558e-04
  2.4113075e-03   1.0886963e-03
  6.1582052e-03   1.0838816e-03
 -5.4095621e-04   1.6226614e-03
 -2.8373247e-03   9.9388999e-04
 -1.3133150e-03   8.6048606e-04
  6.5875379e-03   1.0500085e-03
  1.0270172e-02   1.0937228e-03
  4.4207368e-02   1.0446317e-03
 -2.0466397e-02   7.0539233e-04
 -1.3502006e-03   1.6099504e-03
 -3.4850480e-03   8.4880460e-04
 -1.7101842e-03   1.7707295e-03
 -6.9019003e-03   2.3475885e-03
 -3.9688805e-03   1.6571342e-03
  1.7436160e-03   1.0157920e-03
  5.7584057e-03   9.4711687e-04
  3.8896922e-03   1.8497272e-03
 -1.1014213e-03   7.7153445e-04
  2.8970127e-03   1.2116908e-03
  8.6269149e-04   1.2395020e-03
  5.2973107e-03   1.4570238e-03
  1.1026505e+00   1.4947850e-05
  1.3092782e+00   3.6243521e-04
 -5.5423337e-01   7.6291693e-04
  1.4413266e+00   1.2590517e-03
 -6.9231957e-01   3.0192771e-04
 -2.5419758e-03   1.6076845e-03
 -3.6439395e-01   1.8147948e-04
  6.8053126e-01   5.2879064e-04
  2.0215304e-03   4.7989335e-04
 -1.5526173e-03   7.9197722e-04
  9.6522337e-03   1.7021883e-03
  1.8115717e-01   1.2279481e-03
  1.7447433e-01   3.6884355e-03
 -7.2868679e-05   3.0559237e-04
 -1.3739385e-03   8.0681709e-04
 -5.7295568e-02   2.8837884e-03
 -1.7309837e-01   6.4839219e-04
  4.0153079e-03   1.0678936e-03
 -3.5246345e-03   7.6126936e-04
 -2.5552248e-03   1.8612989e-03
  1.0150818e-02   2.3135438e-03
  2.2838099e-01   2.8743243e-03
  3.8163168e-03   8.9062849e-04
 -1.0519657e-04   1.1141917e-03
  2.3164076e-04   9.3307078e-04
 -3.9067380e-03   1.1598651e-03
 -3.5202140e-03   1.3314686e-03
 -2.3101217e-03   1.4276227e-03
  3.6394659e-03   1.8824699e-03
  1.5879526e-03   2.0245609e-03
 -4.5142886e-01   6.0131133e-04
 -5.1241819e-02   1.6512309e-04
  1.4370368e-03   9.1763830e-04
 -5.1207028e-02   1.3113345e-03
  2.6617721e-03   5.8019126e-04
 -2.1730417e-03   1.5661484e-03
 -5.1874977e-02   6.1720342e-04
 -9.5293892e-04   1.3116648e-03
 -4.5400078e-04   9.9041057e-04
  1.2459175e-03   1.2960940e-03
 -3.1561796e-03   1.7958770e-03
  2.2011786e-03   7.6989009e-04
  2.0362968e-03   8.5066026e-04
  4.0260600e-03   1.5932986e-03
  6.0986616e-03   1.1227247e-03
  1.3351118e-03   8.6068001e-04
  4.3770648e-03   5.5057567e-04
  2.3538456e-04   6.2052778e-04
  2.2559443e-03   5.9457560e-04
  1.0590291e-03   1.6322928e-03
 -1.6370838e-03   9.9484401e-04
  6.6093664e-04   1.7425274e-03
 -5.6875488e-03   1.3368541e-03
 -4.0215650e-03   1.6861063e-03
  2.5716408e-03   1.0606897e-03
 -3.8355382e-03   2.5872844e-03
 -1.0339882e-02   1.3058443e-03
  1.2845669e-03   1.1996796e-03
 -3.3163344e-03   2.6107414e-03
 -2.8312865e-03   1.6517703e-03
 -1.7096137e+00   1.0091204e-04
 -1.0422412e+00   3.2437357e-04
  3.5872903e+00   1.9278967e-04
 -9.1723591e-01   9.9448301e-04
 -1.4328197e-01   3.4643328e-04
 -2.6233457e-03   9.1280637e-04
 -4.4193709e-01   1.1975267e-04
 -5.4030577e-03   1.7365266e-04
 -1.6068242e-01   1.8461052e-04
 -9.0353778e-03   1.2852799e-03
  7.0258593e-03   1.2332530e-03
  2.4768227e-04   6.2666362e-04
 -2.5458321e-01   2.0727217e-03
  6.9449330e-04   1.2120209e-03
 -2.2309991e-03   1.4629806e-03
  2.1126702e-01   9.7668264e-04
  2.5957361e-01   2.1794120e-04
 -1.5604058e-03   1.2880926e-03
 -1.5360601e-03   1.2370913e-03
  1.7822724e-03   9.7551820e-04
  2.0743504e-03   2.7563050e-03
 -2.6740366e-01   9.8500855e-04
 -4.2667851e-04   7.9667964e-04
  2.4166927e-03   2.5707418e-03
 -1.3835889e-03   2.1730470e-03
 -2.2984222e-03   9.4844395e-04
 -8.6992123e-04   1.6819513e-03
 -3.5804049e-03   1.7320578e-03
 -4.9296250e-03   1.0459402e-03
 -2.2227957e-04   2.1548064e-03
  8.1685826e-04   9.7543374e-04
  4.3336218e-03   1.4792188e-03
 -5.0779274e-03   1.3281845e-03
  2.5221051e-03   1.1414659e-03
 -1.9081228e-03   1.0507732e-03
 -7.1880076e-04   1.1708075e-03
 -1.5925334e-03   9.1230881e-04
 -5.9053814e-04   1.0032390e-03
 -1.3802208e-03   1.0408141e-03
  1.8849387e-03   7.5081695e-04
  8.9209963e-04   1.3985717e-03
  2.4095206e-03   1.0007080e-03
  7.3955196e-04   1.9617232e-03
 -3.4535599e-03   1.5845994e-03
  2.8287675e-03   1.1049982e-03
 -6.3009822e-04   1.3795287e-03
  7.3178249e-05   1.5486934e-03
 -2.7355177e-03   1.0438167e-03
  3.0711535e-03   1.9016669e-03
  6.2969635e-04   1.3127343e-03
  6.7109382e-04   1.1399915e-03
 -8.3253765e-04   1.7824571e-03
  1.2191971e-03   1.1654109e-03
 -5.1925401e-04   1.6434118e-03
  2.9401360e-03   5.6199229e-04
 -4.0701954e-03   2.6608307e-03
 -3.1503737e-03   4.6287925e-04
  1.3561957e-03   1.0433394e-03
  3.0721797e-04   1.3268567e-03
 -9.2334095e-03   2.0716114e-04
 -2.1712039e-01   3.7847064e-04
 -7.6949559e-03   5.2944594e-04
  1.7259866e-02   1.1630242e-03
  1.7247711e-03   1.0746793e-03
  1.4812204e-01   1.3424013e-03
  2.2076845e-05   6.2957720e-04
  1.2866564e+00   6.6771550e-04
 -2.2372156e-03   1.7350783e-03
 -8.0756494e-04   1.1793508e-03
  1.2834772e-02   1.0767140e-03
 -2.7206182e-03   7.1381428e-04
  8.2938914e-04   8.0858672e-04
 -4.7757714e-03   1.0470714e-03
 -6.2420068e-04   1.0175569e-03
 -1.2441374e-04   1.3408796e-03
  5.8521879e-01   2.0932688e-03
  8.4999632e-03   9.2984899e-04
 -2.6820812e-03   2.4433772e-03
  6.6642663e-03   1.6702727e-03
 -1.5801096e-03   9.6021063e-04
  5.7227741e-04   1.3440555e-03
  5.8811682e-05   2.0454554e-03
  3.3815799e-03   3.1752611e-04
  6.1117864e-04   1.4206731e-03
 -1.6788243e-03   1.0892304e-03
  2.6925560e-03   1.4593725e-03
 -4.2655347e-03   9.5609104e-04
  8.1034773e-04   9.2185114e-04
  2.1507074e-03   1.9050631e-03
 -1.3664607e-03   1.7163706e-03
 -5.0992477e-03   1.1006627e-03
 -2.3543870e-03   6.0248596e-04
 -1.3181871e-04   8.7427214e-04
 -6.7727352e-03   8.6482376e-04
 -8.6422352e-04   9.7708253e-04
  5.3984171e-04   4.3432743e-04
 -9.2347473e-06   7.8389805e-04
  3.7897099e-03   6.9506926e-04
 -8.1238220e-04   1.2634095e-03
 -1.1622256e-02   1.2725511e-03
  4.0647737e-03   5.6801597e-04
 -1.7857375e-02   1.2963118e-03
  7.4864011e-03   1.4263680e-03
 -4.8022131e-03   1.1759747e-03
  2.4344651e-03   2.0036094e-03
  2.7771499e-03   2.0125355e-03
 -7.9685878e-03   6.5533392e-04
  1.0083264e-03   5.9583603e-04
 -2.6689216e-03   1.6415268e-03
 -1.6091905e-03   2.6858835e-03
  5.2495291e-03   9.6717750e-04
  8.2965032e-04   9.0766454e-04
  2.3275083e-04   5.6224369e-04
  9.8549910e-03   4.7488484e-04
  1.7622868e-04   4.9206638e-04
 -2.0234582e-03   1.3506953e-03
 -9.8517002e-04   1.3842197e-03
 -3.3967178e-03   1.2178487e-03
 -5.2646082e-03   2.0602350e-03
  3.4416479e-04   1.0300258e-03
 -2.5274155e-03   1.8104886e-03
  4.2315884e-03   1.2485521e-03
  1.4789047e-03   1.1592604e-03
  1.2672292e-04   7.2749885e-04
 -1.2141929e-03   5.9900142e-04
  4.7721462e-03   9.4211946e-04
 -1.4532601e-03   1.1451929e-03
  9.8485826e-04   2.0010576e-03
 -2.0915431e-03   1.0472693e-03
  2.7758148e-04   1.1555364e-03
  1.0577908e-03   1.4263708e-03
 -4.5277853e-03   1.6698720e-03
 -2.1701220e-03   1.9098846e-03
 -1.1422654e-03   1.0432652e-03
  1.7284512e-04   7.8957179e-04
 -1.5201997e-04   1.1656502e-03
  2.0445554e-04   1.4155536e-03
 -7.7961367e-03   7.6066738e-04
  8.9149451e-04   8.0736581e-04
  1.9788770e-03   2.2819957e-03
 -8.9695537e-04   1.2219971e-03
 -1.5299937e-03   1.7123050e-03
  3.7057092e-03   1.1408658e-03
  2.6572163e-03   1.6395529e-03
 -5.8867093e-03   1.4216376e-03
  9.8731380e-04   1.5887978e-03
 -4.9875089e-05   1.4106887e-03
 -5.0417148e-06   2.7806889e-03
 -7.8542177e-03   7.9780724e-04
 -1.9949093e-03   1.2194680e-03
 -3.6735793e-03   9.5783395e-04
  2.7221831e-05   5.4170744e-04
  5.6364934e-04   8.6970162e-04
  4.3417034e-01   1.1353203e-03
  4.3929318e-01   4.8416987e-04
 -1.4390117e-02   1.4725046e-03
  3.2084002e-03   5.5309775e-04
  2.4364290e-03   1.5161324e-03
 -2.2077691e-03   4.0171077e-04
  3.7514363e-04   1.2839560e-03
 -2.0039026e-03   1.0129354e-03
 -1.7219117e-03   8.1672653e-04
 -2.1480026e-03   1.3871274e-03
 -6.0646543e-03   4.6260585e-04
 -3.8636322e-03   1.5091539e-03
  4.9430900e-03   1.1322007e-03
 -7.2768319e-04   1.4860852e-03
 -1.2471824e-04   1.1641535e-03
  2.2903595e-03   5.8343966e-04
 -1.3122050e-04   1.4550505e-03
 -1.2649400e-03   1.5814409e-03
 -3.7862668e-03   1.4497199e-03
 -2.8344754e-03   6.9036096e-04
  4.3662116e-03   9.7470975e-04
  5.6340792e-03   1.5634596e-03
 -2.0806594e-03   1.3991123e-03
 -4.6937863e-04   1.8966579e-03
  2.3823360e-03   7.6172862e-04
  5.7281886e-04   1.7931520e-03
 -2.2757174e-03   9.4013667e-04
  1.2100822e-01   9.7509670e-05
  1.6823757e-02   8.4263488e-04
 -6.7478567e-01   5.4336758e-04
  3.6575398e-01   1.5768125e-03
 -1.1514478e-02   7.4992888e-04
  3.9371691e-04   6.5519771e-04
 -9.4540015e-02   3.2356745e-04
  1.8772399e-02   5.8724789e-04
  4.6157618e-03   2.1880509e-04
 -2.1776083e-05   4.7831406e-04
  1.0059737e-03   1.2384662e-03
 -4.5144805e-03   7.1727962e-04
  6.2075728e-03   7.9526211e-04
 -1.8046084e-03   1.1494941e-03
 -4.2741927e-03   7.4703194e-04
 -3.9010355e-03   2.4954418e-03
  3.5470206e-02   1.7871553e-04
  1.0749260e-05   6.3855539e-04
 -4.8902881e-04   2.4203026e-04
  1.2249895e-04   1.4312782e-03
  1.6936460e-03   2.6095257e-04
  1.2120876e-02   2.4823043e-03
  1.9390367e-03   1.6810878e-03
 -3.3454730e-03   7.2788505e-04
  2.8709343e-04   7.9767808e-04
  1.9227867e-03   1.3705060e-03
  2.2491165e-03   2.2863592e-03
 -2.1809074e-03   5.5111328e-04
  2.3230293e-03   1.1021391e-03
 -1.3968101e-03   1.4539571e-03
 -2.7112063e-02   2.5950934e-04
 -1.1345612e-01   1.0005892e-03
  2.1117790e-01   1.1195425e-03
 -1.6745403e-02   9.6970028e-04
 -8.6738379e-05   5.5477151e-04
  1.4593340e-03   1.3266848e-03
 -8.7941712e-01   1.6532557e-04
  6.9747528e-04   8.4124453e-04
  3.4929609e-03   2.2332219e-03
  1.8604205e-03   9.4023446e-04
 -4.6369457e-03   7.9684838e-04
  1.9025321e-03   1.1187764e-03
  1.7249656e-03   1.8810510e-03
 -7.7611982e-04   2.7825858e-03
 -8.9734830e-03   1.4175518e-03
  3.8940590e-02   1.3261817e-03
 -3.0176051e-02   7.1628316e-04
 -1.0989839e-03   1.7360358e-03
  2.5150240e-03   9.5926190e-04
  4.9603954e-03   6.2136131e-04
 -1.3307112e-03   2.5126114e-03
  4.8777089e-05   9.9542027e-04
 -1.5879798e-03   1.7128711e-03
 -1.9819168e-03   9.5006690e-04
  3.3818171e-05   7.8759098e-04
 -3.1701410e-03   9.4426173e-04
  4.6039224e-03   2.9013635e-04
 -6.9805549e-04   5.6202878e-04
  1.7346567e-02   1.4281914e-03
  1.7429901e-03   1.5026903e-03
 -2.3153058e-01   1.5793415e-04
 -8.4481006e-03   1.9094838e-03
  3.0306032e-01   5.3443125e-04
 -5.1141047e-01   8.9972152e-04
 -1.7853419e-03   7.4936444e-04
 -1.2440783e-02   5.2933459e-04
 -6.3224620e-01   2.1586545e-04
 -2.0277395e-03   2.5848194e-04
 -2.4327148e-02   2.4976418e-03
 -3.4527546e-03   1.3845689e-03
  2.3424595e-03   8.7981159e-04
 -3.8330099e-03   7.7350362e-04
 -2.0393144e-02   4.6202537e-04
  7.9825632e-03   1.7720938e-03
 -3.6261051e-03   1.0066881e-03
  1.1395393e-01   2.8588166e-03
  5.1476900e-04   7.6022645e-04
 -1.1024760e-03   1.0087445e-03
  1.1187646e-03   9.5249206e-04
 -5.2995444e-04   4.8949604e-04
 -4.4763493e-03   1.5191981e-03
 -1.0760437e-02   2.5313545e-03
 -1.7723780e-03   1.5906986e-03
  8.4803917e-04   1.4164490e-03
 -8.2850450e-04   1.6317934e-03
 -5.6258064e-05   7.1529998e-04
 -2.2846358e-03   8.5448241e-04
 -8.0870691e-04   1.6335717e-03
 -1.4435003e-03   1.9400915e-03
  3.8496873e-03   1.5967394e-03
 -6.6065580e-02   5.0085504e-04
 -1.5644043e-03   6.9919490e-04
  1.0563127e-02   1.5880716e-03
 -1.2732472e-02   2.2504527e-04
 -1.1653290e-03   8.5111789e-04
 -1.3200684e-02   8.6233550e-04
  1.1444757e-02   4.9208687e-04
 -3.1771050e-03   9.9569850e-04
 -3.4611714e-03   8.7625900e-04
 -3.9754757e-03   8.0914411e-04
  3.9348742e-03   2.3370294e-03
  3.6842504e-04   5.6208012e-04
 -2.2160222e-03   1.8532714e-03
  2.2298957e-03   1.4826102e-03
 -6.7837704e-03   1.4281368e-03
  1.9497901e-03   9.5848076e-04
  1.7551910e-03   1.5444928e-03
  3.2340609e-03   9.4536040e-04
 -1.0142860e-04   7.8011473e-04
 -1.7614071e-03   1.9487944e-03
 -1.3016321e-03   7.5047679e-04
 -1.9388912e-02   1.7554198e-03
 -2.1113150e-04   1.1164987e-03
  1.3637750e-03   1.4506342e-03
 -5.9196842e-04   8.2826440e-04
 -2.8539007e-03   1.3036351e-03
 -3.8769380e-03   1.8026914e-03
  1.8106996e-03   1.4732350e-03
  6.8459520e-04   1.0546742e-03
 -3.8098793e-03   1.1350389e-03
 -2.1091104e+00   2.2993903e-04
 -3.8555141e-03   8.1067334e-04
  6.5437049e-02   1.9426546e-04
  1.0748834e-01   4.1846712e-03
 -4.7670188e-03   1.1771494e-03
 -4.7537719e-04   1.4376822e-03
  3.3568596e-03   1.2410084e-03
 -4.3668009e-05   5.6330283e-04
 -5.6092907e-03   1.7365228e-03
  3.2400598e-03   1.3267664e-03
  3.6149810e-04   1.5645219e-03
  1.1003961e-02   1.0690605e-03
 -1.4645534e-03   1.5314560e-03
 -7.0374380e-03   9.8330167e-04
 -3.4970958e-03   1.5491322e-03
  6.2773828e-03   9.1513916e-04
 -1.9497534e-02   2.0905992e-04
  1.7663287e-03   1.5536278e-03
  2.8841980e-03   1.5986956e-03
  3.3112473e-03   8.1264274e-04
  3.3524132e-03   1.3930696e-03
  2.9876814e-03   1.5791687e-03
 -1.5124907e-03   1.5448113e-03
  7.3983008e-03   1.1203641e-03
 -3.7908497e-01   6.5216431e-05
  6.8005295e-03   2.8897508e-04
 -1.6172472e-03   2.3740079e-04
 -3.2169642e-03   1.2977622e-03
 -8.2086591e-04   1.9235836e-03
 -2.8120426e-03   2.4502669e-03
 -2.1436573e-04   4.9669482e-04
  2.4529428e-03   1.6936084e-03
  6.4629521e-03   1.3795065e-03
  7.4966223e-04   4.3929723e-04
  3.7747016e-04   7.7686063e-04
  4.7816024e-03   1.6985976e-03
  8.2788820e-04   8.3253713e-04
 -3.7020911e-03   1.4546949e-03
  3.5379005e-03   5.8894861e-04
 -2.3594543e-03   1.1941419e-03
  7.0012356e-03   8.3746534e-04
  7.9751099e-03   2.0718374e-03
 -3.9641247e-03   1.0942220e-03
  2.4971156e-03   6.6458335e-04
  4.0441673e-04   1.1882231e-03
 -1.3522687e-05   1.9561243e-03
 -3.4506978e-03   8.2230219e-04
  2.2383293e-03   9.7469636e-04
 -3.7555644e-04   2.0571372e-03
  5.9227616e-05   9.0515701e-04
  4.3351608e-03   1.1220892e-03
  1.5198365e-03   1.5926397e-03
 -6.5626093e-04   1.4179696e-03
  1.5442712e-04   1.3326287e-03
  2.6504411e-03   1.4343695e-03
  1.2534803e-04   8.3238765e-04
  4.0479761e-04   1.5270188e-03
 -2.1721476e-03   1.4130212e-03
 -2.8992477e-03   1.2414436e-03
  4.0455649e-04   9.8904280e-04
  3.9304798e-03   5.6612538e-04
 -5.1611699e-03   1.2612380e-03
  2.3436742e-03   7.7482226e-04
  9.3291688e-04   5.1572197e-04
 -1.0034679e-03   1.5110571e-03
  1.2831544e-02   1.7111230e-03
 -1.3834592e-03   6.8915641e-04
 -3.4737145e-04   9.7998686e-04
  1.5900971e-03   1.6448442e-03
  9.6699409e-03   7.4950617e-04
  1.2864906e-03   1.2235867e-03
 -3.6518010e-03   5.9797819e-04
  4.5743422e-03   2.0365682e-03
 -4.8042927e-03   1.5913527e-03
  2.6605364e-03   1.3112399e-03
 -1.9291267e-02   2.6727519e-03
 -3.7621970e-03   1.2980034e-03
  8.9115778e-04   2.2618463e-03
  5.6206593e-03   1.1882373e-03
 -4.1220072e-03   6.9471513e-04
  9.1553701e-04   9.0762280e-04
  1.1163478e-03   4.7962129e-04
 -4.9753007e-03   1.4442051e-03
  1.8911142e-04   2.0792251e-03
  3.9139753e-03   1.6084209e-03
 -1.5937346e-03   1.2325215e-03
  4.5378725e-03   2.0090765e-03
 -6.2241419e-03   1.8098246e-03
  1.2873395e-05   1.6606610e-03
 -1.3244958e-03   1.9323800e-03
 -1.2330168e+00   5.4864566e-05
 -9.0852991e-04   9.0667151e-04
  1.2318416e-02   1.1103493e-03
 -9.8951459e-02   1.9381650e-03
  1.9087494e-04   7.9471210e-04
  4.8854214e-04   1.5910362e-03
 -5.7595171e-02   2.4459389e-04
 -5.3444584e-03   1.4085775e-03
  3.2819319e-03   1.2872496e-03
  9.0472757e-05   9.5076871e-04
 -1.1998672e-03   1.2819105e-03
 -7.9066097e-04   1.3731795e-03
 -5.5524576e-03   1.1793737e-03
 -1.1768370e-05   1.6845337e-03
 -1.4723996e-03   1.2854920e-03
  3.2527368e-03   7.0476840e-04
  3.2184352e-03   7.9626316e-04
 -1.4724967e-03   8.7134627e-04
 -7.1131331e-03   8.5201161e-04
  4.1004093e-03   1.6997254e-03
 -3.8716809e-03   7.3221419e-04
 -4.4315876e-03   3.1242766e-03
 -1.6410451e-03   1.6239040e-03
  5.0705438e-03   1.0236122e-03
 -2.1020055e-03   1.9140606e-03
 -1.6789970e-03   9.3199039e-04
 -2.2571275e-03   1.0587324e-03
 -8.9846988e-04   2.0577561e-03
 -5.6700589e-04   1.8852011e-03
  5.3657261e-03   1.1533141e-03
  2.3936106e-01   2.4341849e-04
  7.3625677e-05   1.0825606e-04
  1.4011881e-01   3.0307675e-04
 -2.6509812e-01   9.2469429e-04
  2.6438504e-01   1.2059660e-04
 -3.1297428e-03   1.7881554e-03
 -1.0837474e-01   4.3145145e-04
 -2.1810422e-02   7.2261284e-04
 -1.2176204e-02   2.0769234e-03
 -4.7913898e-04   8.9222408e-04
 -9.2755065e-05   1.6754438e-03
 -1.8781365e-03   7.1087299e-04
 -2.8528409e-02   1.8122776e-03
  1.6578991e-03   1.9656268e-03
 -4.4363099e-03   1.1460340e-03
  1.5801018e-01   1.8788701e-03
 -1.0233925e-03   9.8127802e-04
 -1.4953772e-03   1.2722724e-03
 -8.4724370e-04   1.0937469e-03
  2.9474003e-03   1.0726645e-03
 -1.2137724e-02   1.2163408e-03
 -9.7300513e-03   2.8084482e-03
 -5.9371633e-03   1.9413771e-03
 -3.8672661e-05   1.2905850e-03
  3.0495690e-03   1.2542290e-03
 -2.8299121e-03   6.6727039e-04
  5.1706866e-03   1.9165198e-03
 -1.8870651e-03   1.3852520e-03
  1.4736795e-02   2.4609040e-03
  2.1073455e-04   1.6698755e-03
 -2.2376941e-03   5.4965215e-04
 -3.6894376e-03   7.5336220e-04
  1.7184415e-01   1.5041790e-03
 -2.5521636e-03   6.4619846e-04
  6.8595690e-01   5.5568223e-04
 -2.6173054e-03   4.5700089e-04
  9.3059713e-01   4.2450399e-04
  6.7926274e-04   1.1669315e-03
  3.8895814e-05   7.1511389e-04
  2.6884694e-03   1.7467150e-03
 -1.6374938e-03   6.7758706e-04
 -3.8188056e-03   5.7549326e-04
  6.9095945e-04   6.6515757e-04
 -1.1179740e-02   1.2703374e-03
 -8.2392467e-04   8.7725557e-04
 -2.2700404e-04   1.0590553e-03
 -1.1151382e-02   1.3290225e-03
 -6.2804588e-04   8.0269203e-04
  5.4325671e-03   9.4138726e-04
 -2.1755977e-03   7.3382229e-04
  4.6457131e-03   8.1605802e-04
 -2.0234766e-03   9.1952673e-04
 -5.5335038e-03   1.4880544e-03
  1.9372760e-03   9.7410259e-04
 -4.9949053e-04   7.8698125e-04
 -3.4535921e-03   1.2892020e-03
  2.7182321e-03   1.0405603e-03
  9.4726455e-04   1.3896035e-03
 -5.5933055e-03   8.2949176e-04
  1.8385370e-04   5.3381501e-04
  8.2232412e-03   1.2965699e-03
  9.8255081e-03   8.9224719e-04
  3.3100806e-03   9.4543846e-04
  4.0240365e-04   1.8682473e-03
 -6.3341635e-04   1.1900644e-03
 -2.6371470e-04   4.9178716e-04
  3.0751459e-03   6.6229329e-04
  2.8751581e-03   5.0981675e-04
  2.3373010e-05   2.2097745e-03
  3.7818463e-03   1.7566270e-03
 -4.0045124e-03   1.2496354e-03
  3.8788971e-04   7.5417262e-04
  2.3029176e-04   1.2471114e-03
 -5.6969612e-03   9.8264369e-04
  4.3726047e-03   2.8307727e-04
  4.2612603e-04   1.2895754e-03
 -2.3581248e-03   1.6496880e-03
 -1.1922859e-03   1.0489945e-03
  5.5891597e-03   5.6740537e-04
  3.2339743e-03   1.3202530e-03
  4.6891551e-03   1.9978278e-03
  3.1345347e-03   1.9870971e-03
  2.3868939e-05   1.2195052e-03
 -1.5241444e-03   1.5184612e-03
 -2.4618907e-03   1.4409682e-03
  4.4737424e-04   1.1946270e-03
  6.3671810e-03   1.9674953e-03
  9.5118841e-05   7.1131415e-04
 -3.7201110e-03   1.3873887e-03
  1.3634665e-03   1.1931069e-03
 -1.2439681e+00   1.1826868e-04
 -6.2360386e-03   3.4476092e-04
  4.3664590e-01   3.5469845e-04
 -8.7215994e-03   1.5364331e-03
  5.0428987e-01   3.8944784e-04
 -3.4453183e-01   9.9417858e-04
 -1.5098501e-02   2.2495197e-04
 -3.6304386e-03   6.7498226e-04
 -1.5339311e-03   2.1706496e-03
 -1.1657597e-02   6.9656124e-04
  6.2467123e-04   1.2757651e-03
  1.5747827e-01   5.5487989e-04
 -3.6521089e-01   7.6438964e-04
 -3.4677732e-04   2.2449649e-03
  1.9242045e-03   7.3641754e-04
  8.1341695e-03   6.1112252e-04
 -1.9955629e-01   5.2224594e-04
 -8.1417672e-03   9.0255158e-04
 -8.9274980e-03   6.6620926e-04
  3.1840545e-03   1.8531717e-03
 -1.7524279e-03   1.1076450e-03
 -9.5814277e-05   2.1264323e-03
 -1.6335625e-02   1.2571664e-03
 -4.1928496e-03   1.2195898e-03
  1.3020351e-03   1.6938116e-03
 -1.9123320e-03   8.9194614e-04
  2.9095395e-03   1.5118693e-03
 -4.3057757e-03   5.9527811e-04
 -7.3963136e-05   1.9115047e-03
 -1.5566889e-03   9.9379988e-04
  2.3451610e-01   9.2748654e-05
  4.3626267e-01   2.7661637e-04
  1.4269435e-01   6.8800313e-05
 -2.9933283e+00   4.9677049e-04
 -2.9829192e-01   4.4118020e-05
 -4.5439005e-01   8.7854115e-04
  2.0733221e-01   1.1957422e-04
  2.1135281e-03   1.3976000e-04
 -1.3631731e-02   1.2970050e-03
  1.2185687e-04   1.1568608e-03
  3.8817970e-03   1.4716600e-03
  8.9547175e-01   3.5116202e-04
 -1.0754414e+00   4.0402272e-04
  3.1789467e-03   1.2343834e-03
 -5.7131611e-03   7.0931372e-04
  3.1609622e-01   3.1613509e-04
 -4.6262022e-02   1.4435682e-04
  1.7856335e-04   8.5603009e-04
 -5.9415400e-03   1.3197750e-03
 -1.0416103e-03   1.2426461e-03
 -1.5215153e-02   2.7028411e-03
 -1.0636007e+00   3.9180467e-04
 -1.1096799e-02   1.3631362e-03
  1.1875519e-02   4.2879581e-04
 -4.8771693e-04   1.8775626e-03
  1.7622379e-03   1.2262913e-03
  1.9409457e-01   1.9915584e-03
 -4.3738136e-01   7.0308386e-03
  3.7644445e-03   2.3486551e-03
  4.6927016e-03   1.9788088e-03
 -5.9153044e-01   3.1781229e-04
 -1.3319036e+00   8.9044165e-04
  6.1462051e-01   1.2082143e-04
 -1.0865405e+00   8.8859489e-04
 -1.3420466e+00   9.6731004e-05
 -3.8616164e-03   1.0266606e-03
 -3.4439940e-02   2.0264667e-04
 -5.8077246e-01   5.8320002e-04
 -4.6374230e-03   4.1686420e-04
 -2.1236122e-03   1.5785927e-03
  6.6181468e-03   1.3394484e-03
 -8.4188521e-01   2.4771935e-04
 -4.2482165e-01   1.7913752e-03
  3.9318618e-03   1.7453291e-03
  1.0804946e-03   1.8675762e-03
  2.6433605e-01   2.0045824e-03
 -8.3480760e-02   3.0515069e-04
 -2.0854378e-01   1.0171306e-03
  2.7689594e-03   2.4535747e-03
  9.0668254e-05   1.2299544e-03
 -4.2092678e-04   8.8801875e-04
 -1.6516353e-01   1.5199361e-03
 -7.9681328e-04   1.3881611e-03
  1.8319580e-03   1.8830418e-03
 -6.3686785e-03   1.0605921e-03
  3.0860610e-03   4.7813373e-04
  5.8322586e-04   1.9049548e-03
 -2.3357920e-02   3.1808293e-03
 -3.0639807e-03   1.0867632e-03
  5.8298716e-03   6.8690052e-04
 -2.1147312e-01   1.1952622e-04
 -7.4123782e-01   1.1983945e-04
 -4.3685377e-01   1.5607031e-04
 -2.6104245e-01   4.7954203e-05
 -1.2299889e+00   6.7954963e-05
 -8.9910698e-01   1.4520559e-04
 -6.0130161e-04   7.8575977e-04
  1.4910173e+00   2.1363288e-05
  1.6373888e-01   6.1414743e-05
 -1.4473614e+00   2.1484586e-04
  6.0687816e-01   1.4079205e-04
 -1.0254798e-03   5.7756354e-04
 -1.2280937e-01   5.1756535e-04
 -3.6859699e-02   6.3337438e-04
 -1.0230026e-02   5.1981164e-04
 -1.2155657e+00   6.3367811e-04
  2.6082087e-01   1.3478198e-04
 -3.7600079e-01   5.3243792e-05
 -1.3274062e-04   1.5269117e-04
  3.3861524e-01   6.3059549e-04
  2.3893428e-01   4.6819239e-04
  9.4844057e-04   7.6535554e-04
  3.7768456e-01   3.7627481e-04
 -4.1641090e-03   5.2753935e-04
  7.6179826e-01   2.0834539e-05
  8.2759130e-01   2.0876649e-04
  6.0355372e-04   1.8014032e-03
  1.4404492e+00   4.8896920e-05
 -1.1927732e+00   2.7998112e-05
 -4.9879026e-01   3.5594323e-05
  1.6397259e+00   1.1163326e-04
  2.3702896e+00   6.5365697e-05
 -5.1551819e-01   1.4053989e-04
 -3.3359456e-01   1.1387974e-03
 -2.1104097e+00   7.0350165e-05
  5.3735715e-01   3.0762484e-04
 -9.5603673e-04   1.6601876e-03