
***************************************************************
*                 Welcome to use GPUMD                        *
*    (Graphics Processing Units Molecular Dynamics)           *
*                    Version 3.9.1                            *
*              This is the nep executable                     *
***************************************************************


---------------------------------------------------------------
GPU information:
---------------------------------------------------------------

number of GPUs = 1
Device id:                   0
    Device name:             NVIDIA GeForce RTX 4080
    Compute capability:      8.9
    Amount of global memory: 15.578 GB
    Number of SMs:           76

---------------------------------------------------------------
Started running nep.
---------------------------------------------------------------


---------------------------------------------------------------
Started reading nep.in.
---------------------------------------------------------------

Input or default parameters:
    (default) model_type = potential.
    (default) calculation mode = train.
    (input)   use NEP version 4.
    (input)   number of atom types = 3.
        (default) type 0 (Ba with Z = 56) has force weight of 1.
        (default) type 1 (Zr with Z = 40) has force weight of 1.
        (default) type 2 (S with Z = 16) has force weight of 1.
    (default) will not add the ZBL potential.
    (input)   radial cutoff = 8 A.
    (input)   angular cutoff = 4 A.
    (default) n_max_radial = 4.
    (default) n_max_angular = 4.
    (default) basis_size_radial = 12.
    (default) basis_size_angular = 12.
    (default) l_max_3body = 4.
    (default) l_max_4body = 2.
    (default) l_max_5body = 0.
    (input)   number of neurons = 30.
    (default) lambda_1 = 0.0636475.
    (default) lambda_2 = 0.0636475.
    (default) lambda_e = 1.
    (default) lambda_f = 1.
    (default) lambda_v = 0.1.
    (default) lambda_shear = 1.
    (default) force_delta = 0.
    (input)   batch size = 10000000.
    (default) population size = 50.
    (input)   maximum number of generations = 1000000.
Some calculated parameters:
    number of radial descriptor components = 5.
    number of angular descriptor components = 25.
    total number of descriptor components = 30.
    NN architecture = 30-30-1.
    number of NN parameters to be optimized = 2881.
    number of descriptor parameters to be optimized = 1170.
    total number of parameters to be optimized = 4051.

---------------------------------------------------------------
Finished reading nep.in.
---------------------------------------------------------------


---------------------------------------------------------------
Started reading train.xyz.
---------------------------------------------------------------

Number of configurations = 1375.
Number of devices = 1
Number of batches = 1
Hello, I changed the batch_size from 10000000 to 1375.

Batch 0:
Number of configurations = 1375.

---------------------------------------------------------------
Constructing train_set in device  0.
Total number of atoms = 118080.
Number of atoms in the largest configuration = 320.
Number of configurations having virial = 708.
Radial descriptor with a cutoff of 8 A:
    Minimum number of neighbors for one atom = 44.
    Maximum number of neighbors for one atom = 150.
Angular descriptor with a cutoff of 4 A:
    Minimum number of neighbors for one atom = 0.
    Maximum number of neighbors for one atom = 20.
---------------------------------------------------------------


---------------------------------------------------------------
Started reading test.xyz.
---------------------------------------------------------------

Number of configurations = 1.

---------------------------------------------------------------
Constructing test_set in device  0.
Total number of atoms = 135.
Number of atoms in the largest configuration = 135.
Number of configurations having virial = 0.
Radial descriptor with a cutoff of 8 A:
    Minimum number of neighbors for one atom = 93.
    Maximum number of neighbors for one atom = 109.
Angular descriptor with a cutoff of 4 A:
    Minimum number of neighbors for one atom = 6.
    Maximum number of neighbors for one atom = 16.
---------------------------------------------------------------


---------------------------------------------------------------
Time used for initialization = 0.167281 s.
---------------------------------------------------------------


---------------------------------------------------------------
Started training.
---------------------------------------------------------------

Step    Total-Loss L1Reg-Loss L2Reg-Loss RMSE-E-Train RMSE-F-Train RMSE-V-Train RMSE-E-Test  RMSE-F-Test  RMSE-V-Test  
100     0.40223    0.02042    0.02507    0.03154      0.29975      0.25452      0.01605      0.30122      0.00000      
200     0.35460    0.02299    0.02871    0.02304      0.25908      0.20779      0.00695      0.27224      0.00000      
300     0.34213    0.02521    0.03179    0.02418      0.24167      0.19287      0.00634      0.25510      0.00000      
400     0.33834    0.02758    0.03468    0.02302      0.23109      0.21966      0.00520      0.24235      0.00000      
500     0.33971    0.02949    0.03701    0.02658      0.22899      0.17644      0.00905      0.27392      0.00000      
600     0.33438    0.03155    0.03969    0.02042      0.22770      0.15026      0.01078      0.24745      0.00000      
700     0.32815    0.03375    0.04249    0.02146      0.21643      0.14022      0.01155      0.24752      0.00000      
800     0.32217    0.03572    0.04491    0.01535      0.21361      0.12584      0.01013      0.23877      0.00000      
900     0.32676    0.03722    0.04662    0.01873      0.20973      0.14460      0.00755      0.25717      0.00000      
1000    0.32516    0.03867    0.04854    0.01623      0.20909      0.12633      0.00968      0.22723      0.00000      
1100    0.32429    0.04010    0.05053    0.01976      0.19920      0.14708      0.00037      0.22612      0.00000      
1200    0.32237    0.04136    0.05225    0.01554      0.19757      0.15653      0.00452      0.23916      0.00000      
1300    0.31925    0.04320    0.05429    0.01315      0.19615      0.12463      0.00220      0.24430      0.00000      
1400    0.31389    0.04459    0.05618    0.01460      0.18635      0.12169      0.01716      0.21446      0.00000      
1500    0.30399    0.04582    0.05758    0.01241      0.17916      0.09016      0.01520      0.20578      0.00000      
1600    0.31962    0.04720    0.05956    0.01715      0.18496      0.10743      0.00568      0.23393      0.00000      
1700    0.31491    0.04878    0.06166    0.01120      0.18201      0.11256      0.00552      0.23072      0.00000      
1800    0.31820    0.04979    0.06335    0.01891      0.17197      0.14184      0.01463      0.22698      0.00000      
1900    0.31703    0.05092    0.06450    0.01606      0.17494      0.10607      0.00049      0.22230      0.00000      
2000    0.31117    0.05204    0.06644    0.01096      0.17105      0.10683      0.00556      0.21153      0.00000      
2100    0.31463    0.05303    0.06753    0.01488      0.16775      0.11440      0.02080      0.20759      0.00000      
2200    0.31290    0.05323    0.06817    0.01419      0.16713      0.10181      0.00706      0.20870      0.00000      
2300    0.31411    0.05484    0.06983    0.01424      0.16118      0.14019      0.00189      0.21685      0.00000      
2400    0.31398    0.05530    0.07083    0.01538      0.16178      0.10690      0.00124      0.19951      0.00000      
2500    0.31557    0.05645    0.07219    0.01307      0.15966      0.14195      0.01354      0.20561      0.00000      
2600    0.31538    0.05672    0.07271    0.01471      0.16218      0.09066      0.00320      0.18635      0.00000      
2700    0.31519    0.05783    0.07406    0.01609      0.15641      0.10800      0.01200      0.21050      0.00000      
2800    0.31186    0.05914    0.07577    0.01569      0.14933      0.11913      0.01108      0.19549      0.00000      
2900    0.30955    0.05962    0.07659    0.01139      0.15212      0.09831      0.01626      0.19084      0.00000      
3000    0.30543    0.06024    0.07744    0.01024      0.14815      0.09362      0.00090      0.17851      0.00000      
3100    0.30569    0.06107    0.07861    0.01221      0.14442      0.09379      0.01166      0.19727      0.00000      
3200    0.30808    0.06237    0.08004    0.00920      0.14707      0.09405      0.00619      0.20840      0.00000      
3300    0.30913    0.06290    0.08104    0.01306      0.14173      0.10401      0.00806      0.16781      0.00000      
3400    0.30946    0.06375    0.08216    0.01261      0.14081      0.10125      0.00365      0.17170      0.00000      
3500    0.30861    0.06427    0.08316    0.01225      0.13996      0.08979      0.00148      0.17187      0.00000      
3600    0.30411    0.06507    0.08405    0.01221      0.13186      0.10916      0.01508      0.16182      0.00000      
3700    0.30607    0.06546    0.08465    0.00959      0.13731      0.09058      0.00726      0.15801      0.00000      
3800    0.30460    0.06627    0.08536    0.00904      0.13418      0.09760      0.01174      0.18107      0.00000      
3900    0.30812    0.06678    0.08604    0.01174      0.13482      0.08740      0.00114      0.17195      0.00000      
4000    0.30389    0.06737    0.08661    0.01670      0.12539      0.07825      0.01524      0.17247      0.00000      
4100    0.30645    0.06815    0.08723    0.01162      0.12999      0.09472      0.01708      0.18128      0.00000      
4200    0.30309    0.06906    0.08884    0.01108      0.12474      0.09368      0.00403      0.16029      0.00000      
4300    0.30014    0.06971    0.08968    0.01042      0.12211      0.08225      0.00110      0.17607      0.00000      
4400    0.30149    0.07024    0.09045    0.00816      0.12488      0.07751      0.00545      0.16227      0.00000      
4500    0.30299    0.07103    0.09167    0.00818      0.12382      0.08284      0.00695      0.16960      0.00000      
4600    0.30541    0.07161    0.09253    0.00912      0.12136      0.10793      0.00935      0.16846      0.00000      
4700    0.30842    0.07197    0.09295    0.01423      0.12109      0.08178      0.00714      0.17446      0.00000      
4800    0.30879    0.07205    0.09319    0.01767      0.11635      0.09542      0.00760      0.15743      0.00000      
4900    0.30919    0.07247    0.09378    0.01417      0.12020      0.08561      0.01052      0.17056      0.00000      
5000    0.30893    0.07313    0.09455    0.01482      0.11936      0.07074      0.01539      0.15836      0.00000      
5100    0.30703    0.07372    0.09531    0.01143      0.11806      0.08518      0.01059      0.15278      0.00000      
5200    0.30903    0.07423    0.09601    0.01137      0.11918      0.08234      0.00247      0.16236      0.00000      
5300    0.30986    0.07507    0.09695    0.01155      0.11721      0.09084      0.00946      0.14869      0.00000      
5400    0.31304    0.07548    0.09768    0.00975      0.12074      0.09397      0.00769      0.16441      0.00000      
5500    0.31016    0.07597    0.09841    0.00963      0.11692      0.09236      0.01176      0.15685      0.00000      
5600    0.31317    0.07674    0.09962    0.01118      0.11640      0.09243      0.00428      0.18168      0.00000      
5700    0.30840    0.07687    0.09962    0.01006      0.11517      0.06690      0.00336      0.16209      0.00000      
5800    0.30524    0.07734    0.10017    0.00720      0.11387      0.06672      0.00168      0.15919      0.00000      
5900    0.31399    0.07784    0.10073    0.00947      0.11728      0.08673      0.00031      0.17747      0.00000      
6000    0.31351    0.07805    0.10078    0.00978      0.11755      0.07354      0.00375      0.16007      0.00000      
6100    0.31583    0.07884    0.10172    0.00897      0.11811      0.08193      0.00108      0.16856      0.00000      
6200    0.31511    0.07879    0.10192    0.01028      0.11656      0.07554      0.01024      0.16050      0.00000      
6300    0.31462    0.07954    0.10292    0.01100      0.11406      0.07097      0.00950      0.16421      0.00000      
6400    0.31472    0.07979    0.10311    0.00910      0.11442      0.08291      0.00501      0.14681      0.00000      
6500    0.31216    0.08009    0.10327    0.00649      0.11445      0.07868      0.00032      0.14960      0.00000      
6600    0.31507    0.08080    0.10397    0.00711      0.11624      0.06957      0.00482      0.15270      0.00000      
6700    0.31574    0.08061    0.10439    0.00926      0.11297      0.08511      0.00346      0.15431      0.00000      
6800    0.31256    0.08117    0.10496    0.00914      0.11040      0.06888      0.00048      0.15810      0.00000      
6900    0.31440    0.08105    0.10495    0.00965      0.11107      0.07671      0.00727      0.15353      0.00000      
7000    0.31584    0.08154    0.10555    0.00889      0.11206      0.07799      0.00882      0.15421      0.00000      
7100    0.31812    0.08162    0.10609    0.00893      0.11274      0.08732      0.00193      0.15039      0.00000      
7200    0.31243    0.08218    0.10658    0.00602      0.11010      0.07547      0.00365      0.14109      0.00000      
7300    0.31400    0.08252    0.10669    0.00677      0.11052      0.07503      0.00644      0.14062      0.00000      
7400    0.31577    0.08304    0.10759    0.00657      0.11167      0.06894      0.00420      0.16015      0.00000      
7500    0.31466    0.08292    0.10755    0.00895      0.10896      0.06278      0.01013      0.14443      0.00000      
7600    0.31490    0.08348    0.10804    0.00712      0.10832      0.07944      0.00674      0.15018      0.00000      
7700    0.31538    0.08369    0.10857    0.00847      0.10796      0.06687      0.00393      0.14914      0.00000      
7800    0.31630    0.08384    0.10895    0.00791      0.10895      0.06651      0.00416      0.14349      0.00000      
7900    0.31464    0.08391    0.10908    0.00830      0.10700      0.06341      0.00465      0.13977      0.00000      
8000    0.31379    0.08405    0.10912    0.00711      0.10771      0.05801      0.00136      0.14384      0.00000      
8100    0.31392    0.08432    0.10992    0.00534      0.10687      0.07469      0.00591      0.14984      0.00000      
8200    0.31486    0.08449    0.11003    0.00834      0.10494      0.07057      0.00484      0.14702      0.00000      
8300    0.31574    0.08488    0.11057    0.00747      0.10591      0.06919      0.00268      0.14178      0.00000      
8400    0.31414    0.08514    0.11081    0.00662      0.10445      0.07128      0.00274      0.14260      0.00000      
8500    0.31247    0.08500    0.11063    0.00705      0.10340      0.06381      0.00038      0.13485      0.00000      
8600    0.31574    0.08516    0.11065    0.00910      0.10395      0.06879      0.00030      0.13951      0.00000      
8700    0.31465    0.08535    0.11098    0.00674      0.10496      0.06614      0.01190      0.14471      0.00000      
8800    0.31469    0.08561    0.11132    0.00583      0.10449      0.07447      0.00128      0.14289      0.00000      
8900    0.31619    0.08557    0.11147    0.00889      0.10430      0.05965      0.00766      0.14158      0.00000      
9000    0.31708    0.08577    0.11164    0.00770      0.10554      0.06423      0.01134      0.15300      0.00000      
9100    0.31588    0.08564    0.11138    0.00845      0.10374      0.06662      0.01019      0.13804      0.00000      
9200    0.31466    0.08579    0.11162    0.00657      0.10463      0.06052      0.00287      0.13773      0.00000      
9300    0.31303    0.08590    0.11189    0.00499      0.10438      0.05862      0.00158      0.14281      0.00000      
9400    0.31527    0.08586    0.11140    0.00730      0.10500      0.05709      0.00476      0.14558      0.00000      
9500    0.31606    0.08618    0.11203    0.00567      0.10563      0.06550      0.00511      0.15063      0.00000      
9600    0.31704    0.08640    0.11240    0.00707      0.10491      0.06270      0.00362      0.14184      0.00000      
9700    0.31708    0.08624    0.11209    0.00882      0.10397      0.05964      0.01470      0.14637      0.00000      
9800    0.31721    0.08647    0.11239    0.00634      0.10655      0.05451      0.01151      0.15962      0.00000      
9900    0.31706    0.08693    0.11275    0.00744      0.10330      0.06624      0.00059      0.14248      0.00000      
10000   0.31809    0.08690    0.11277    0.00768      0.10416      0.06573      0.00368      0.14816      0.00000      
10100   0.31372    0.08660    0.11284    0.00560      0.10224      0.06448      0.00253      0.14836      0.00000      
10200   0.31582    0.08659    0.11291    0.00596      0.10363      0.06732      0.00240      0.14164      0.00000      
10300   0.31472    0.08651    0.11303    0.00579      0.10406      0.05320      0.00466      0.14001      0.00000      
10400   0.31387    0.08698    0.11346    0.00598      0.10125      0.06193      0.00121      0.13804      0.00000      
10500   0.31502    0.08687    0.11326    0.00791      0.10154      0.05433      0.00066      0.13950      0.00000      
10600   0.31497    0.08735    0.11366    0.00643      0.10213      0.05400      0.00173      0.13990      0.00000      
10700   0.31509    0.08759    0.11406    0.00539      0.10174      0.06305      0.00002      0.13921      0.00000      
10800   0.31333    0.08747    0.11403    0.00580      0.10060      0.05436      0.00264      0.14113      0.00000      
10900   0.31535    0.08764    0.11457    0.00719      0.09977      0.06177      0.00552      0.14249      0.00000      
11000   0.31465    0.08790    0.11425    0.00503      0.10200      0.05466      0.00020      0.14361      0.00000      
11100   0.31402    0.08805    0.11460    0.00570      0.10037      0.05300      0.00133      0.14493      0.00000      
11200   0.31576    0.08812    0.11497    0.00656      0.10061      0.05492      0.00024      0.14021      0.00000      
11300   0.31420    0.08777    0.11432    0.00516      0.10130      0.05659      0.00553      0.13978      0.00000      
11400   0.31339    0.08746    0.11422    0.00501      0.10122      0.05481      0.00021      0.14593      0.00000      
11500   0.31351    0.08799    0.11455    0.00489      0.10045      0.05629      0.00218      0.14089      0.00000      
11600   0.31466    0.08769    0.11431    0.00518      0.10177      0.05701      0.00268      0.14687      0.00000      
11700   0.31305    0.08782    0.11437    0.00429      0.10065      0.05924      0.00419      0.14546      0.00000      
11800   0.31065    0.08700    0.11354    0.00510      0.09967      0.05343      0.00578      0.14306      0.00000      
11900   0.31141    0.08686    0.11312    0.00615      0.10007      0.05216      0.00020      0.14183      0.00000      
12000   0.30963    0.08641    0.11289    0.00569      0.10001      0.04633      0.00001      0.14607      0.00000      
12100   0.31045    0.08659    0.11269    0.00772      0.09843      0.05020      0.00086      0.14357      0.00000      
12200   0.31036    0.08654    0.11258    0.00592      0.09946      0.05848      0.00037      0.14752      0.00000      
12300   0.31129    0.08659    0.11301    0.00556      0.10080      0.05327      0.00600      0.14709      0.00000      
12400   0.30797    0.08583    0.11239    0.00536      0.09885      0.05525      0.00261      0.14548      0.00000      
12500   0.30755    0.08602    0.11259    0.00550      0.09773      0.05712      0.00056      0.15179      0.00000      
12600   0.30836    0.08621    0.11271    0.00445      0.09926      0.05739      0.00503      0.14589      0.00000      
12700   0.30935    0.08644    0.11302    0.00565      0.09815      0.06089      0.00640      0.13763      0.00000      
12800   0.30817    0.08643    0.11302    0.00536      0.09804      0.05321      0.00145      0.13777      0.00000      
12900   0.30851    0.08645    0.11327    0.00530      0.09850      0.04978      0.00145      0.15337      0.00000      
13000   0.30950    0.08686    0.11360    0.00589      0.09765      0.05506      0.00220      0.14280      0.00000      
13100   0.30894    0.08684    0.11347    0.00448      0.09836      0.05795      0.00096      0.13667      0.00000      
13200   0.30901    0.08685    0.11339    0.00661      0.09616      0.05995      0.00598      0.13766      0.00000      
13300   0.30890    0.08678    0.11342    0.00483      0.09747      0.06406      0.00061      0.13316      0.00000      
13400   0.30870    0.08675    0.11348    0.00493      0.09829      0.05253      0.00111      0.13797      0.00000      
13500   0.30758    0.08611    0.11276    0.00536      0.09785      0.05497      0.00166      0.13836      0.00000      
13600   0.30723    0.08624    0.11292    0.00495      0.09786      0.05261      0.00015      0.13775      0.00000      
13700   0.30678    0.08636    0.11273    0.00575      0.09672      0.05214      0.00116      0.13682      0.00000      
13800   0.30748    0.08620    0.11240    0.00564      0.09805      0.05196      0.00186      0.13257      0.00000      
13900   0.30471    0.08588    0.11180    0.00565      0.09583      0.05551      0.00087      0.13134      0.00000      
14000   0.30378    0.08592    0.11168    0.00460      0.09599      0.05598      0.00123      0.12956      0.00000      
14100   0.30420    0.08565    0.11159    0.00584      0.09641      0.04717      0.00516      0.13536      0.00000      
14200   0.30417    0.08554    0.11157    0.00455      0.09757      0.04949      0.00159      0.13463      0.00000      
14300   0.30600    0.08580    0.11186    0.00402      0.09981      0.04498      0.00307      0.13436      0.00000      
14400   0.30482    0.08525    0.11112    0.00473      0.09834      0.05379      0.00065      0.13748      0.00000      
14500   0.30174    0.08521    0.11116    0.00395      0.09660      0.04822      0.00166      0.13347      0.00000      
14600   0.30201    0.08525    0.11107    0.00419      0.09647      0.05027      0.00188      0.13433      0.00000      
14700   0.30186    0.08478    0.11090    0.00445      0.09675      0.04987      0.00041      0.13697      0.00000      
14800   0.30046    0.08449    0.11063    0.00450      0.09627      0.04571      0.00109      0.13396      0.00000      
14900   0.30207    0.08433    0.11037    0.00450      0.09735      0.05520      0.00014      0.13953      0.00000      
15000   0.30245    0.08443    0.11071    0.00501      0.09708      0.05229      0.00058      0.14290      0.00000      
15100   0.30128    0.08444    0.11049    0.00442      0.09692      0.05015      0.00246      0.13507      0.00000      
15200   0.29979    0.08420    0.11008    0.00459      0.09567      0.05252      0.00190      0.13544      0.00000      
15300   0.29858    0.08386    0.10982    0.00470      0.09586      0.04340      0.00352      0.13559      0.00000      
15400   0.29777    0.08333    0.10919    0.00445      0.09575      0.05057      0.00119      0.13601      0.00000      
15500   0.29798    0.08341    0.10916    0.00472      0.09574      0.04946      0.00042      0.13226      0.00000      
15600   0.29623    0.08351    0.10933    0.00401      0.09450      0.04880      0.00040      0.13401      0.00000      
15700   0.29721    0.08326    0.10926    0.00476      0.09458      0.05348      0.00295      0.13392      0.00000      
15800   0.29623    0.08311    0.10871    0.00442      0.09540      0.04581      0.00041      0.13379      0.00000      
15900   0.29514    0.08292    0.10858    0.00493      0.09403      0.04686      0.00404      0.13564      0.00000      
16000   0.29578    0.08301    0.10850    0.00404      0.09575      0.04494      0.00232      0.13916      0.00000      
16100   0.29594    0.08308    0.10843    0.00451      0.09552      0.04396      0.00305      0.13748      0.00000      
16200   0.29429    0.08294    0.10824    0.00400      0.09483      0.04289      0.00253      0.13470      0.00000      
16300   0.29625    0.08322    0.10829    0.00385      0.09619      0.04702      0.00112      0.13528      0.00000      
16400   0.29553    0.08305    0.10842    0.00479      0.09498      0.04294      0.00546      0.13320      0.00000      
16500   0.29493    0.08292    0.10824    0.00344      0.09568      0.04651      0.00309      0.13530      0.00000      
16600   0.29466    0.08285    0.10820    0.00463      0.09438      0.04591      0.00290      0.13282      0.00000      
16700   0.29533    0.08245    0.10788    0.00494      0.09457      0.05482      0.00000      0.12892      0.00000      
16800   0.29251    0.08188    0.10743    0.00392      0.09432      0.04958      0.00336      0.13202      0.00000      
16900   0.29308    0.08187    0.10735    0.00397      0.09502      0.04871      0.00126      0.13096      0.00000      
17000   0.29240    0.08207    0.10712    0.00422      0.09412      0.04869      0.00255      0.12988      0.00000      
17100   0.29103    0.08147    0.10662    0.00442      0.09367      0.04838      0.00441      0.12972      0.00000      
17200   0.29030    0.08097    0.10605    0.00439      0.09384      0.05041      0.00147      0.13275      0.00000      
17300   0.28893    0.08095    0.10590    0.00394      0.09334      0.04796      0.00159      0.12843      0.00000      
17400   0.28796    0.07988    0.10488    0.00495      0.09385      0.04406      0.00017      0.12666      0.00000      
17500   0.28723    0.07969    0.10472    0.00427      0.09337      0.05177      0.00263      0.12633      0.00000      
17600   0.28677    0.07955    0.10454    0.00377      0.09450      0.04408      0.00047      0.12933      0.00000      
17700   0.28478    0.07872    0.10360    0.00430      0.09373      0.04438      0.00457      0.12743      0.00000      
17800   0.28447    0.07857    0.10341    0.00439      0.09359      0.04498      0.00511      0.13109      0.00000      
17900   0.28367    0.07836    0.10307    0.00466      0.09291      0.04671      0.00343      0.12905      0.00000      
18000   0.28242    0.07796    0.10279    0.00477      0.09287      0.04025      0.00867      0.13633      0.00000      
18100   0.28108    0.07731    0.10232    0.00347      0.09357      0.04414      0.00121      0.13227      0.00000      
18200   0.28164    0.07740    0.10231    0.00567      0.09188      0.04381      0.00679      0.13023      0.00000      
18300   0.28078    0.07699    0.10187    0.00511      0.09204      0.04774      0.00718      0.13233      0.00000      
18400   0.27987    0.07676    0.10178    0.00376      0.09247      0.05099      0.00248      0.13446      0.00000      
18500   0.27982    0.07669    0.10151    0.00491      0.09223      0.04471      0.00347      0.12825      0.00000      
18600   0.27855    0.07663    0.10131    0.00432      0.09206      0.04232      0.00376      0.12947      0.00000      
18700   0.27970    0.07664    0.10127    0.00391      0.09310      0.04777      0.00079      0.12775      0.00000      
18800   0.27913    0.07628    0.10087    0.00425      0.09274      0.04989      0.00100      0.12749      0.00000      
18900   0.27808    0.07610    0.10055    0.00404      0.09311      0.04273      0.00594      0.12915      0.00000      
19000   0.27720    0.07585    0.10039    0.00426      0.09233      0.04372      0.00205      0.12411      0.00000      
19100   0.27725    0.07587    0.10027    0.00461      0.09209      0.04415      0.00696      0.12802      0.00000      
19200   0.27752    0.07569    0.10016    0.00334      0.09382      0.04522      0.00119      0.12519      0.00000      
19300   0.27751    0.07606    0.10040    0.00367      0.09274      0.04631      0.00569      0.13184      0.00000      
19400   0.27652    0.07590    0.09999    0.00376      0.09202      0.04835      0.00312      0.12311      0.00000      
19500   0.27522    0.07514    0.09937    0.00442      0.09149      0.04799      0.00376      0.12646      0.00000      
19600   0.27389    0.07529    0.09942    0.00396      0.09095      0.04265      0.00447      0.12862      0.00000      
19700   0.27373    0.07518    0.09935    0.00338      0.09128      0.04540      0.00116      0.12854      0.00000      
19800   0.27384    0.07487    0.09921    0.00377      0.09105      0.04941      0.00221      0.12552      0.00000      
19900   0.27373    0.07463    0.09874    0.00426      0.09151      0.04598      0.00402      0.13108      0.00000      
20000   0.27269    0.07457    0.09876    0.00349      0.09169      0.04183      0.00113      0.13005      0.00000      
20100   0.27250    0.07401    0.09813    0.00466      0.09172      0.03980      0.00485      0.13494      0.00000      
20200   0.27170    0.07422    0.09838    0.00399      0.09090      0.04211      0.00481      0.13007      0.00000      
20300   0.27087    0.07407    0.09811    0.00427      0.09039      0.04022      0.00456      0.12859      0.00000      
20400   0.27104    0.07390    0.09794    0.00467      0.09032      0.04209      0.00376      0.12945      0.00000      
20500   0.27055    0.07405    0.09797    0.00441      0.08968      0.04435      0.00522      0.13450      0.00000      
20600   0.26982    0.07346    0.09734    0.00398      0.09105      0.03995      0.00103      0.13037      0.00000      
20700   0.26986    0.07375    0.09743    0.00354      0.09055      0.04593      0.00033      0.12878      0.00000      
20800   0.26847    0.07320    0.09686    0.00464      0.08949      0.04274      0.00330      0.12607      0.00000      
20900   0.26753    0.07330    0.09700    0.00358      0.08961      0.04027      0.00237      0.12835      0.00000      
21000   0.26779    0.07298    0.09652    0.00397      0.09037      0.03945      0.00672      0.12838      0.00000      
21100   0.26830    0.07297    0.09641    0.00405      0.09073      0.04147      0.00425      0.12766      0.00000      
21200   0.26665    0.07312    0.09641    0.00359      0.08960      0.03939      0.00183      0.12629      0.00000      
21300   0.26701    0.07271    0.09610    0.00364      0.09026      0.04297      0.00193      0.12701      0.00000      
21400   0.26641    0.07289    0.09599    0.00444      0.08916      0.03933      0.00324      0.12421      0.00000      
21500   0.26650    0.07287    0.09597    0.00391      0.08959      0.04166      0.00124      0.12510      0.00000      
21600   0.26615    0.07243    0.09568    0.00425      0.08966      0.04136      0.00252      0.12512      0.00000      
21700   0.26553    0.07201    0.09516    0.00361      0.09065      0.04102      0.00463      0.13167      0.00000      
21800   0.26517    0.07193    0.09529    0.00377      0.09020      0.03968      0.00448      0.13179      0.00000      
21900   0.26426    0.07139    0.09456    0.00380      0.09036      0.04144      0.00003      0.12937      0.00000      
22000   0.26458    0.07130    0.09450    0.00378      0.09049      0.04503      0.00525      0.12710      0.00000      
22100   0.26319    0.07132    0.09465    0.00355      0.08969      0.03987      0.00185      0.12705      0.00000      
22200   0.26148    0.07088    0.09406    0.00315      0.08919      0.04191      0.00129      0.12738      0.00000      
22300   0.26211    0.07099    0.09408    0.00352      0.08954      0.03974      0.00080      0.12279      0.00000      
22400   0.26193    0.07065    0.09389    0.00383      0.08955      0.04006      0.00553      0.12807      0.00000      
22500   0.26171    0.07077    0.09374    0.00351      0.08987      0.03816      0.00336      0.13075      0.00000      
22600   0.26092    0.07044    0.09348    0.00325      0.08929      0.04465      0.00006      0.13111      0.00000      
22700   0.26038    0.06980    0.09277    0.00376      0.08926      0.04790      0.00025      0.12942      0.00000      
22800   0.26033    0.06981    0.09286    0.00519      0.08837      0.04097      0.00713      0.12524      0.00000      
22900   0.25944    0.06976    0.09267    0.00359      0.08927      0.04160      0.00020      0.12131      0.00000      
23000   0.25853    0.06935    0.09240    0.00296      0.08944      0.04391      0.00177      0.12693      0.00000      
23100   0.25755    0.06901    0.09212    0.00369      0.08867      0.04058      0.00337      0.12283      0.00000      
23200   0.25835    0.06939    0.09227    0.00353      0.08927      0.03899      0.00114      0.13081      0.00000      
23300   0.25846    0.06959    0.09227    0.00336      0.08894      0.04305      0.00018      0.13004      0.00000      
23400   0.25743    0.06957    0.09220    0.00317      0.08816      0.04341      0.00256      0.12765      0.00000      
23500   0.25766    0.06919    0.09175    0.00344      0.08875      0.04538      0.00067      0.12757      0.00000      
23600   0.25661    0.06886    0.09168    0.00411      0.08832      0.03652      0.00302      0.12502      0.00000      
23700   0.25569    0.06837    0.09113    0.00353      0.08888      0.03778      0.00038      0.12377      0.00000      
23800   0.25453    0.06797    0.09046    0.00394      0.08853      0.03622      0.00185      0.12829      0.00000      
23900   0.25343    0.06775    0.09018    0.00337      0.08848      0.03654      0.00292      0.12414      0.00000      
24000   0.25346    0.06775    0.09024    0.00358      0.08821      0.03680      0.00511      0.12651      0.00000      
24100   0.25379    0.06784    0.09014    0.00384      0.08806      0.03916      0.00288      0.12736      0.00000      
24200   0.25246    0.06743    0.08979    0.00365      0.08772      0.03870      0.00252      0.12503      0.00000      
24300   0.25268    0.06759    0.08980    0.00367      0.08758      0.04042      0.00163      0.12280      0.00000      
24400   0.25199    0.06726    0.08944    0.00398      0.08736      0.03955      0.00368      0.12006      0.00000      
24500   0.25165    0.06663    0.08914    0.00368      0.08782      0.04372      0.00233      0.12294      0.00000      
24600   0.25030    0.06641    0.08886    0.00368      0.08732      0.04034      0.00079      0.12063      0.00000      
24700   0.25136    0.06664    0.08894    0.00393      0.08789      0.03962      0.00163      0.12480      0.00000      
24800   0.25123    0.06681    0.08920    0.00383      0.08722      0.04175      0.00229      0.12434      0.00000      
24900   0.25117    0.06669    0.08892    0.00338      0.08792      0.04261      0.00344      0.12260      0.00000      
25000   0.24940    0.06644    0.08886    0.00324      0.08710      0.03765      0.00238      0.12347      0.00000      
25100   0.24987    0.06618    0.08847    0.00393      0.08717      0.04117      0.00196      0.12165      0.00000      
25200   0.24875    0.06627    0.08845    0.00348      0.08642      0.04114      0.00176      0.12262      0.00000      
25300   0.24890    0.06595    0.08809    0.00358      0.08743      0.03849      0.00157      0.12193      0.00000      
25400   0.24849    0.06587    0.08783    0.00364      0.08708      0.04055      0.00112      0.12368      0.00000      
25500   0.24817    0.06601    0.08807    0.00346      0.08657      0.04052      0.00297      0.11955      0.00000      
25600   0.24794    0.06589    0.08778    0.00325      0.08700      0.04020      0.00147      0.12296      0.00000      
25700   0.24660    0.06541    0.08747    0.00303      0.08682      0.03862      0.00138      0.12184      0.00000      
25800   0.24661    0.06522    0.08742    0.00329      0.08686      0.03823      0.00293      0.12377      0.00000      
25900   0.24717    0.06536    0.08748    0.00338      0.08702      0.03926      0.00682      0.12454      0.00000      
26000   0.24715    0.06525    0.08737    0.00367      0.08719      0.03673      0.00245      0.12298      0.00000      
26100   0.24568    0.06521    0.08709    0.00333      0.08638      0.03669      0.00264      0.12053      0.00000      
26200   0.24623    0.06511    0.08707    0.00357      0.08660      0.03878      0.00171      0.12101      0.00000      
26300   0.24495    0.06481    0.08656    0.00317      0.08657      0.03841      0.00299      0.12201      0.00000      
26400   0.24452    0.06445    0.08625    0.00371      0.08615      0.03956      0.00353      0.11782      0.00000      
26500   0.24401    0.06433    0.08612    0.00358      0.08637      0.03615      0.00814      0.11992      0.00000      
26600   0.24347    0.06416    0.08593    0.00366      0.08575      0.03972      0.00366      0.11774      0.00000      
26700   0.24326    0.06376    0.08554    0.00338      0.08690      0.03677      0.00050      0.12030      0.00000      
26800   0.24288    0.06397    0.08567    0.00315      0.08662      0.03470      0.00131      0.11789      0.00000      
26900   0.24193    0.06348    0.08532    0.00303      0.08668      0.03427      0.00043      0.12123      0.00000      
27000   0.24202    0.06346    0.08523    0.00371      0.08615      0.03463      0.00055      0.12025      0.00000      
27100   0.24200    0.06340    0.08535    0.00295      0.08615      0.04146      0.00015      0.12488      0.00000      
27200   0.24256    0.06359    0.08543    0.00366      0.08651      0.03365      0.00310      0.12146      0.00000      
27300   0.24219    0.06336    0.08525    0.00301      0.08662      0.03961      0.00114      0.12405      0.00000      
27400   0.24177    0.06332    0.08530    0.00304      0.08656      0.03548      0.00250      0.12378      0.00000      
27500   0.24136    0.06325    0.08504    0.00364      0.08597      0.03469      0.00214      0.12182      0.00000      
27600   0.24105    0.06275    0.08464    0.00372      0.08594      0.03999      0.00183      0.12178      0.00000      
27700   0.23934    0.06242    0.08420    0.00329      0.08588      0.03551      0.00187      0.12141      0.00000      
27800   0.23987    0.06256    0.08451    0.00344      0.08575      0.03608      0.00215      0.12425      0.00000      
27900   0.23945    0.06262    0.08446    0.00349      0.08521      0.03674      0.00062      0.12232      0.00000      
28000   0.23927    0.06245    0.08420    0.00364      0.08537      0.03618      0.00320      0.11880      0.00000      
28100   0.23886    0.06212    0.08378    0.00350      0.08580      0.03655      0.00026      0.12082      0.00000      
28200   0.23807    0.06187    0.08356    0.00379      0.08522      0.03623      0.00129      0.12112      0.00000      
28300   0.23810    0.06209    0.08358    0.00296      0.08585      0.03619      0.00310      0.12306      0.00000      
28400   0.23696    0.06174    0.08315    0.00307      0.08516      0.03848      0.00096      0.11782      0.00000      
28500   0.23749    0.06147    0.08292    0.00399      0.08549      0.03626      0.00314      0.12005      0.00000      
28600   0.23635    0.06095    0.08258    0.00332      0.08545      0.04057      0.00206      0.12504      0.00000      
28700   0.23606    0.06104    0.08253    0.00383      0.08528      0.03383      0.00008      0.11873      0.00000      
28800   0.23533    0.06092    0.08247    0.00341      0.08509      0.03439      0.00001      0.12104      0.00000      
28900   0.23525    0.06079    0.08216    0.00324      0.08497      0.04096      0.00187      0.12129      0.00000      
29000   0.23544    0.06100    0.08230    0.00318      0.08548      0.03474      0.00172      0.12004      0.00000      
29100   0.23421    0.06031    0.08171    0.00358      0.08539      0.03221      0.00230      0.12202      0.00000      
29200   0.23401    0.06048    0.08160    0.00330      0.08496      0.03653      0.00319      0.12355      0.00000      
29300   0.23341    0.05992    0.08139    0.00350      0.08446      0.04141      0.00106      0.12058      0.00000      
29400   0.23346    0.06012    0.08159    0.00339      0.08443      0.03928      0.00023      0.12134      0.00000      
29500   0.23268    0.05983    0.08138    0.00335      0.08452      0.03608      0.00249      0.12078      0.00000      
29600   0.23287    0.05985    0.08129    0.00380      0.08444      0.03492      0.00216      0.12068      0.00000      
29700   0.23165    0.05946    0.08091    0.00345      0.08429      0.03541      0.00410      0.11956      0.00000      
29800   0.23143    0.05937    0.08056    0.00349      0.08445      0.03559      0.00286      0.12076      0.00000      
29900   0.23165    0.05958    0.08086    0.00358      0.08445      0.03182      0.00017      0.12115      0.00000      
30000   0.23112    0.05945    0.08058    0.00283      0.08487      0.03388      0.00185      0.12247      0.00000      
30100   0.23163    0.05964    0.08081    0.00318      0.08441      0.03592      0.00041      0.11846      0.00000      
30200   0.23096    0.05945    0.08050    0.00276      0.08411      0.04142      0.00064      0.11944      0.00000      
30300   0.22994    0.05895    0.08006    0.00288      0.08466      0.03392      0.00273      0.11841      0.00000      
30400   0.23008    0.05882    0.07979    0.00388      0.08442      0.03162      0.00383      0.12293      0.00000      
30500   0.22926    0.05865    0.07978    0.00342      0.08403      0.03389      0.00297      0.11932      0.00000      
30600   0.22942    0.05867    0.07979    0.00341      0.08409      0.03456      0.00119      0.11698      0.00000      
30700   0.22850    0.05836    0.07948    0.00292      0.08417      0.03569      0.00202      0.12088      0.00000      
30800   0.22835    0.05816    0.07925    0.00333      0.08438      0.03230      0.00191      0.11953      0.00000      
30900   0.22749    0.05807    0.07917    0.00309      0.08370      0.03466      0.00181      0.12078      0.00000      
31000   0.22829    0.05808    0.07934    0.00316      0.08397      0.03738      0.00228      0.11737      0.00000      
31100   0.22770    0.05779    0.07905    0.00332      0.08394      0.03599      0.00343      0.11934      0.00000      
31200   0.22738    0.05776    0.07895    0.00345      0.08394      0.03290      0.00007      0.11824      0.00000      
31300   0.22638    0.05763    0.07880    0.00302      0.08353      0.03402      0.00203      0.11933      0.00000      
31400   0.22610    0.05748    0.07864    0.00315      0.08354      0.03295      0.00306      0.11991      0.00000      
31500   0.22654    0.05763    0.07859    0.00357      0.08351      0.03244      0.00560      0.12115      0.00000      
31600   0.22571    0.05755    0.07852    0.00328      0.08309      0.03274      0.00355      0.11601      0.00000      
31700   0.22570    0.05740    0.07847    0.00319      0.08326      0.03388      0.00413      0.11481      0.00000      
31800   0.22547    0.05724    0.07836    0.00295      0.08349      0.03444      0.00278      0.11554      0.00000      
31900   0.22530    0.05712    0.07820    0.00334      0.08333      0.03319      0.00334      0.11567      0.00000      
32000   0.22526    0.05708    0.07798    0.00347      0.08322      0.03515      0.00521      0.11664      0.00000      
32100   0.22417    0.05685    0.07780    0.00304      0.08307      0.03405      0.00295      0.11897      0.00000      
32200   0.22446    0.05679    0.07769    0.00336      0.08326      0.03358      0.00464      0.11772      0.00000      
32300   0.22406    0.05661    0.07756    0.00289      0.08313      0.03873      0.00161      0.11858      0.00000      
32400   0.22370    0.05649    0.07755    0.00314      0.08324      0.03283      0.00645      0.11741      0.00000      
32500   0.22325    0.05617    0.07733    0.00323      0.08328      0.03245      0.00653      0.11942      0.00000      
32600   0.22412    0.05659    0.07765    0.00312      0.08322      0.03552      0.00240      0.11875      0.00000      
32700   0.22348    0.05629    0.07731    0.00345      0.08321      0.03219      0.00775      0.12067      0.00000      
32800   0.22228    0.05574    0.07668    0.00271      0.08351      0.03648      0.00179      0.12332      0.00000      
32900   0.22211    0.05565    0.07662    0.00325      0.08341      0.03184      0.00275      0.12312      0.00000      
33000   0.22090    0.05531    0.07631    0.00321      0.08268      0.03400      0.00394      0.12146      0.00000      
33100   0.22066    0.05500    0.07590    0.00349      0.08288      0.03399      0.00379      0.12293      0.00000      
33200   0.22123    0.05554    0.07622    0.00308      0.08265      0.03745      0.00367      0.12208      0.00000      
33300   0.22021    0.05508    0.07574    0.00342      0.08284      0.03120      0.00381      0.12011      0.00000      
33400   0.22016    0.05517    0.07567    0.00297      0.08284      0.03507      0.00175      0.12038      0.00000      
33500   0.21995    0.05522    0.07575    0.00315      0.08253      0.03302      0.00296      0.12025      0.00000      
33600   0.22002    0.05520    0.07574    0.00312      0.08220      0.03761      0.00383      0.11882      0.00000      
33700   0.21965    0.05499    0.07557    0.00328      0.08247      0.03349      0.00469      0.11918      0.00000      
33800   0.21981    0.05513    0.07563    0.00304      0.08255      0.03457      0.00361      0.11912      0.00000      
33900   0.22007    0.05527    0.07572    0.00302      0.08252      0.03545      0.00107      0.11971      0.00000      
34000   0.21938    0.05495    0.07540    0.00273      0.08236      0.03943      0.00076      0.11985      0.00000      
34100   0.21910    0.05463    0.07523    0.00274      0.08262      0.03870      0.00182      0.11955      0.00000      
34200   0.21920    0.05475    0.07523    0.00279      0.08280      0.03629      0.00247      0.12065      0.00000      
34300   0.21842    0.05429    0.07487    0.00286      0.08295      0.03460      0.00399      0.12164      0.00000      
34400   0.21794    0.05416    0.07478    0.00304      0.08263      0.03333      0.00430      0.11680      0.00000      
34500   0.21746    0.05413    0.07473    0.00260      0.08246      0.03535      0.00245      0.11831      0.00000      
34600   0.21798    0.05415    0.07475    0.00321      0.08236      0.03511      0.00353      0.11678      0.00000      
34700   0.21780    0.05406    0.07453    0.00329      0.08260      0.03320      0.00564      0.11912      0.00000      
34800   0.21726    0.05386    0.07430    0.00290      0.08292      0.03280      0.00288      0.11784      0.00000      
34900   0.21738    0.05391    0.07438    0.00354      0.08236      0.03186      0.00453      0.11677      0.00000      
35000   0.21716    0.05402    0.07445    0.00305      0.08223      0.03408      0.00174      0.11809      0.00000      
35100   0.21725    0.05392    0.07440    0.00376      0.08197      0.03216      0.00310      0.11586      0.00000      
35200   0.21609    0.05381    0.07427    0.00266      0.08175      0.03604      0.00042      0.11573      0.00000      
35300   0.21643    0.05367    0.07404    0.00301      0.08246      0.03254      0.00527      0.12124      0.00000      
35400   0.21592    0.05365    0.07392    0.00294      0.08219      0.03217      0.00497      0.11920      0.00000      
35500   0.21551    0.05343    0.07376    0.00327      0.08192      0.03127      0.00326      0.11534      0.00000      
35600   0.21498    0.05298    0.07352    0.00269      0.08210      0.03687      0.00017      0.11459      0.00000      
35700   0.21398    0.05281    0.07320    0.00276      0.08201      0.03199      0.00348      0.11397      0.00000      
35800   0.21453    0.05290    0.07323    0.00302      0.08199      0.03390      0.00289      0.11538      0.00000      
35900   0.21382    0.05283    0.07295    0.00257      0.08192      0.03552      0.00252      0.11723      0.00000      
36000   0.21333    0.05249    0.07269    0.00292      0.08182      0.03406      0.00379      0.11595      0.00000      
36100   0.21340    0.05236    0.07260    0.00310      0.08214      0.03194      0.00323      0.11676      0.00000      
36200   0.21339    0.05239    0.07267    0.00272      0.08186      0.03747      0.00306      0.11861      0.00000      
36300   0.21355    0.05225    0.07261    0.00285      0.08254      0.03305      0.00632      0.12307      0.00000      
36400   0.21273    0.05251    0.07270    0.00236      0.08196      0.03192      0.00435      0.12246      0.00000      
36500   0.21317    0.05250    0.07266    0.00252      0.08201      0.03492      0.00111      0.11725      0.00000      
36600   0.21237    0.05219    0.07233    0.00258      0.08195      0.03330      0.00452      0.11654      0.00000      
36700   0.21222    0.05216    0.07232    0.00266      0.08170      0.03375      0.00472      0.11734      0.00000      
36800   0.21173    0.05199    0.07215    0.00286      0.08168      0.03052      0.00599      0.11620      0.00000      
36900   0.21183    0.05190    0.07200    0.00264      0.08167      0.03620      0.00240      0.11822      0.00000      
37000   0.21171    0.05184    0.07200    0.00269      0.08156      0.03612      0.00374      0.11795      0.00000      
37100   0.21076    0.05150    0.07175    0.00287      0.08141      0.03231      0.00309      0.11552      0.00000      
37200   0.21068    0.05143    0.07170    0.00316      0.08135      0.03037      0.00507      0.11564      0.00000      
37300   0.21007    0.05135    0.07155    0.00304      0.08102      0.03117      0.00442      0.11706      0.00000      
37400   0.20987    0.05142    0.07154    0.00268      0.08094      0.03285      0.00334      0.11428      0.00000      
37500   0.20948    0.05114    0.07134    0.00257      0.08131      0.03114      0.00376      0.11567      0.00000      
37600   0.20973    0.05118    0.07134    0.00323      0.08094      0.03047      0.00347      0.11379      0.00000      
37700   0.20946    0.05094    0.07116    0.00307      0.08114      0.03152      0.00386      0.11596      0.00000      
37800   0.20969    0.05109    0.07127    0.00273      0.08126      0.03329      0.00323      0.11630      0.00000      
37900   0.20984    0.05116    0.07123    0.00276      0.08119      0.03498      0.00448      0.11687      0.00000      
38000   0.20946    0.05120    0.07118    0.00257      0.08146      0.03056      0.00159      0.11776      0.00000      
38100   0.20920    0.05086    0.07112    0.00274      0.08120      0.03279      0.00354      0.11611      0.00000      
38200   0.20898    0.05080    0.07098    0.00270      0.08116      0.03341      0.00365      0.11968      0.00000      
38300   0.20838    0.05060    0.07082    0.00256      0.08099      0.03421      0.00415      0.11895      0.00000      
38400   0.20854    0.05069    0.07082    0.00292      0.08103      0.03071      0.00356      0.11595      0.00000      
38500   0.20870    0.05080    0.07086    0.00264      0.08137      0.03027      0.00372      0.11568      0.00000      
38600   0.20789    0.05046    0.07058    0.00264      0.08110      0.03109      0.00357      0.11642      0.00000      
38700   0.20751    0.05013    0.07037    0.00261      0.08100      0.03398      0.00304      0.11557      0.00000      
38800   0.20676    0.04980    0.07014    0.00272      0.08081      0.03290      0.00271      0.11491      0.00000      
38900   0.20691    0.04966    0.07019    0.00271      0.08107      0.03278      0.00136      0.11516      0.00000      
39000   0.20656    0.04969    0.07022    0.00275      0.08066      0.03236      0.00258      0.11542      0.00000      
39100   0.20712    0.04996    0.07018    0.00329      0.08061      0.03084      0.00396      0.11588      0.00000      
39200   0.20659    0.04962    0.06994    0.00281      0.08091      0.03305      0.00437      0.11584      0.00000      
39300   0.20605    0.04956    0.06983    0.00285      0.08070      0.03123      0.00356      0.11637      0.00000      
39400   0.20593    0.04950    0.06972    0.00265      0.08062      0.03439      0.00304      0.11518      0.00000      
39500   0.20577    0.04927    0.06964    0.00257      0.08093      0.03344      0.00445      0.11451      0.00000      
39600   0.20469    0.04895    0.06940    0.00267      0.08050      0.03178      0.00397      0.11440      0.00000      
39700   0.20511    0.04898    0.06938    0.00272      0.08077      0.03264      0.00385      0.11569      0.00000      
39800   0.20488    0.04912    0.06940    0.00271      0.08037      0.03284      0.00368      0.11474      0.00000      
39900   0.20498    0.04911    0.06927    0.00273      0.08069      0.03179      0.00149      0.11740      0.00000      
40000   0.20460    0.04906    0.06916    0.00282      0.08065      0.02915      0.00356      0.11552      0.00000      
40100   0.20458    0.04868    0.06890    0.00279      0.08107      0.03141      0.00471      0.11532      0.00000      
40200   0.20403    0.04878    0.06895    0.00314      0.08017      0.02988      0.00639      0.11597      0.00000      
40300   0.20358    0.04853    0.06862    0.00301      0.08041      0.03009      0.00530      0.11804      0.00000      
40400   0.20388    0.04859    0.06868    0.00261      0.08093      0.03074      0.00319      0.11910      0.00000      
40500   0.20340    0.04840    0.06867    0.00303      0.08031      0.02991      0.00329      0.11503      0.00000      
40600   0.20282    0.04833    0.06853    0.00262      0.08035      0.02983      0.00378      0.11365      0.00000      
40700   0.20270    0.04806    0.06832    0.00256      0.08064      0.03130      0.00179      0.11596      0.00000      
40800   0.20215    0.04789    0.06823    0.00292      0.07990      0.03196      0.00262      0.11508      0.00000      
40900   0.20223    0.04797    0.06815    0.00284      0.08013      0.03138      0.00414      0.11277      0.00000      
41000   0.20176    0.04772    0.06792    0.00261      0.07996      0.03555      0.00246      0.11576      0.00000      
41100   0.20211    0.04793    0.06807    0.00303      0.07999      0.03080      0.00372      0.11053      0.00000      
41200   0.20221    0.04772    0.06803    0.00278      0.08026      0.03422      0.00253      0.11450      0.00000      
41300   0.20155    0.04757    0.06781    0.00243      0.08041      0.03331      0.00077      0.11548      0.00000      
41400   0.20103    0.04755    0.06780    0.00245      0.07979      0.03442      0.00109      0.11299      0.00000      
41500   0.20132    0.04753    0.06770    0.00294      0.07998      0.03171      0.00216      0.11093      0.00000      
41600   0.20071    0.04730    0.06735    0.00261      0.08002      0.03440      0.00210      0.11376      0.00000      
41700   0.20011    0.04696    0.06719    0.00296      0.07994      0.03056      0.00501      0.11290      0.00000      
41800   0.20001    0.04701    0.06712    0.00263      0.07994      0.03321      0.00249      0.11315      0.00000      
41900   0.19965    0.04665    0.06688    0.00262      0.08025      0.03239      0.00180      0.11545      0.00000      
42000   0.19961    0.04676    0.06688    0.00271      0.08011      0.03147      0.00324      0.11425      0.00000      
42100   0.19967    0.04682    0.06683    0.00279      0.08035      0.02873      0.00249      0.11374      0.00000      
42200   0.19922    0.04661    0.06669    0.00261      0.08033      0.02982      0.00214      0.11388      0.00000      
42300   0.19930    0.04675    0.06669    0.00270      0.07999      0.03163      0.00223      0.11221      0.00000      
42400   0.19920    0.04658    0.06666    0.00263      0.08015      0.03183      0.00238      0.11576      0.00000      
42500   0.19863    0.04639    0.06641    0.00248      0.08020      0.03156      0.00156      0.11290      0.00000      
42600   0.19812    0.04616    0.06632    0.00267      0.07988      0.03106      0.00345      0.11267      0.00000      
42700   0.19805    0.04625    0.06641    0.00254      0.07982      0.03033      0.00379      0.11212      0.00000      
42800   0.19842    0.04636    0.06649    0.00254      0.07975      0.03282      0.00209      0.11388      0.00000      
42900   0.19832    0.04622    0.06630    0.00248      0.08006      0.03259      0.00276      0.11363      0.00000      
43000   0.19753    0.04594    0.06611    0.00260      0.07966      0.03207      0.00231      0.11488      0.00000      
43100   0.19739    0.04569    0.06596    0.00274      0.07992      0.03067      0.00161      0.11221      0.00000      
43200   0.19751    0.04566    0.06593    0.00272      0.07991      0.03282      0.00363      0.11230      0.00000      
43300   0.19666    0.04539    0.06567    0.00260      0.07961      0.03386      0.00293      0.11261      0.00000      
43400   0.19576    0.04503    0.06536    0.00251      0.07966      0.03191      0.00156      0.11289      0.00000      
43500   0.19605    0.04509    0.06530    0.00256      0.07985      0.03260      0.00143      0.11225      0.00000      
43600   0.19562    0.04500    0.06525    0.00242      0.07966      0.03287      0.00421      0.11203      0.00000      
43700   0.19583    0.04510    0.06520    0.00252      0.07989      0.03123      0.00338      0.11032      0.00000      
43800   0.19537    0.04491    0.06509    0.00252      0.07968      0.03158      0.00194      0.10895      0.00000      
43900   0.19554    0.04491    0.06505    0.00254      0.07965      0.03385      0.00157      0.11015      0.00000      
44000   0.19532    0.04483    0.06505    0.00254      0.07966      0.03237      0.00317      0.10820      0.00000      
44100   0.19528    0.04480    0.06501    0.00260      0.07963      0.03240      0.00264      0.11073      0.00000      
44200   0.19520    0.04485    0.06502    0.00246      0.07953      0.03341      0.00326      0.11077      0.00000      
44300   0.19498    0.04490    0.06501    0.00233      0.07943      0.03313      0.00284      0.11169      0.00000      
44400   0.19486    0.04474    0.06481    0.00267      0.07960      0.03040      0.00333      0.11071      0.00000      
44500   0.19451    0.04453    0.06473    0.00244      0.07960      0.03212      0.00196      0.10959      0.00000      
44600   0.19398    0.04435    0.06451    0.00257      0.07959      0.02966      0.00345      0.11043      0.00000      
44700   0.19401    0.04428    0.06447    0.00265      0.07949      0.03116      0.00300      0.11302      0.00000      
44800   0.19378    0.04421    0.06436    0.00255      0.07935      0.03313      0.00271      0.11054      0.00000      
44900   0.19339    0.04392    0.06420    0.00272      0.07950      0.03048      0.00350      0.11253      0.00000      
45000   0.19360    0.04402    0.06410    0.00286      0.07908      0.03546      0.00132      0.11187      0.00000      
45100   0.19309    0.04386    0.06404    0.00236      0.07943      0.03393      0.00192      0.11163      0.00000      
45200   0.19323    0.04391    0.06404    0.00246      0.07950      0.03319      0.00119      0.11251      0.00000      
45300   0.19319    0.04398    0.06402    0.00272      0.07951      0.02968      0.00271      0.11035      0.00000      
45400   0.19259    0.04367    0.06372    0.00249      0.07914      0.03559      0.00225      0.11262      0.00000      
45500   0.19236    0.04367    0.06359    0.00247      0.07932      0.03306      0.00323      0.11257      0.00000      
45600   0.19191    0.04339    0.06352    0.00284      0.07911      0.03049      0.00555      0.11166      0.00000      
45700   0.19164    0.04327    0.06333    0.00260      0.07930      0.03148      0.00293      0.11189      0.00000      
45800   0.19146    0.04318    0.06319    0.00242      0.07926      0.03402      0.00244      0.11298      0.00000      
45900   0.19175    0.04328    0.06324    0.00231      0.07969      0.03229      0.00274      0.11124      0.00000      
46000   0.19163    0.04333    0.06320    0.00254      0.07941      0.03165      0.00427      0.11063      0.00000      
46100   0.19172    0.04320    0.06319    0.00233      0.07942      0.03576      0.00158      0.10807      0.00000      
46200   0.19139    0.04321    0.06321    0.00251      0.07937      0.03084      0.00320      0.10968      0.00000      
46300   0.19135    0.04318    0.06314    0.00256      0.07915      0.03319      0.00144      0.11018      0.00000      
46400   0.19090    0.04312    0.06304    0.00240      0.07920      0.03139      0.00275      0.11067      0.00000      
46500   0.19075    0.04286    0.06289    0.00235      0.07951      0.03141      0.00231      0.11376      0.00000      
46600   0.19023    0.04265    0.06279    0.00226      0.07913      0.03401      0.00093      0.10925      0.00000      
46700   0.19022    0.04265    0.06277    0.00262      0.07925      0.02922      0.00381      0.11020      0.00000      
46800   0.18967    0.04237    0.06252    0.00270      0.07909      0.02981      0.00327      0.10841      0.00000      
46900   0.18937    0.04231    0.06243    0.00266      0.07901      0.02954      0.00190      0.10932      0.00000      
47000   0.18926    0.04226    0.06243    0.00236      0.07904      0.03167      0.00183      0.10825      0.00000      
47100   0.18925    0.04227    0.06234    0.00254      0.07908      0.03017      0.00326      0.10857      0.00000      
47200   0.18933    0.04217    0.06233    0.00246      0.07938      0.02987      0.00093      0.10920      0.00000      
47300   0.18920    0.04216    0.06234    0.00250      0.07893      0.03282      0.00211      0.10763      0.00000      
47400   0.18897    0.04204    0.06230    0.00259      0.07922      0.02816      0.00241      0.11175      0.00000      
47500   0.18871    0.04196    0.06219    0.00228      0.07900      0.03283      0.00073      0.10867      0.00000      
47600   0.18799    0.04147    0.06190    0.00240      0.07905      0.03184      0.00146      0.10828      0.00000      
47700   0.18822    0.04162    0.06185    0.00270      0.07900      0.03040      0.00425      0.10945      0.00000      
47800   0.18812    0.04161    0.06184    0.00275      0.07894      0.02987      0.00313      0.11011      0.00000      
47900   0.18784    0.04143    0.06168    0.00243      0.07914      0.03157      0.00259      0.11061      0.00000      
48000   0.18775    0.04138    0.06161    0.00273      0.07899      0.03048      0.00250      0.11120      0.00000      
48100   0.18739    0.04143    0.06159    0.00232      0.07907      0.02982      0.00230      0.11024      0.00000      
48200   0.18727    0.04125    0.06149    0.00253      0.07902      0.02981      0.00439      0.10945      0.00000      
48300   0.18750    0.04151    0.06163    0.00242      0.07885      0.03094      0.00399      0.11196      0.00000      
48400   0.18705    0.04118    0.06144    0.00246      0.07884      0.03128      0.00296      0.10869      0.00000      
48500   0.18679    0.04105    0.06134    0.00229      0.07905      0.03055      0.00219      0.10965      0.00000      
48600   0.18702    0.04119    0.06138    0.00246      0.07899      0.02996      0.00363      0.11012      0.00000      
48700   0.18658    0.04081    0.06113    0.00238      0.07919      0.03062      0.00238      0.11060      0.00000      
48800   0.18623    0.04066    0.06100    0.00271      0.07881      0.03061      0.00347      0.10932      0.00000      
48900   0.18623    0.04070    0.06096    0.00248      0.07912      0.02968      0.00315      0.10899      0.00000      
49000   0.18613    0.04065    0.06087    0.00252      0.07896      0.03126      0.00309      0.11092      0.00000      
49100   0.18594    0.04058    0.06091    0.00223      0.07893      0.03280      0.00202      0.10889      0.00000      
49200   0.18601    0.04058    0.06090    0.00243      0.07895      0.03157      0.00150      0.11185      0.00000      
49300   0.18581    0.04054    0.06079    0.00264      0.07879      0.03051      0.00318      0.11026      0.00000      
49400   0.18518    0.04016    0.06049    0.00235      0.07888      0.03295      0.00148      0.11038      0.00000      
49500   0.18535    0.04030    0.06058    0.00223      0.07897      0.03278      0.00103      0.10797      0.00000      
49600   0.18526    0.04020    0.06052    0.00263      0.07896      0.02952      0.00192      0.10695      0.00000      
49700   0.18524    0.04013    0.06050    0.00237      0.07898      0.03267      0.00131      0.10808      0.00000      
49800   0.18481    0.04014    0.06041    0.00235      0.07882      0.03081      0.00180      0.10852      0.00000      
49900   0.18472    0.03995    0.06028    0.00240      0.07900      0.03095      0.00128      0.10931      0.00000      
50000   0.18473    0.04005    0.06027    0.00228      0.07914      0.02986      0.00134      0.10996      0.00000      
50100   0.18480    0.04003    0.06027    0.00245      0.07899      0.03060      0.00351      0.11218      0.00000      
50200   0.18451    0.04001    0.06021    0.00228      0.07885      0.03170      0.00234      0.11170      0.00000      
50300   0.18420    0.03988    0.06011    0.00242      0.07873      0.03068      0.00299      0.11072      0.00000      
50400   0.18385    0.03956    0.05985    0.00244      0.07883      0.03174      0.00331      0.11231      0.00000      
50500   0.18377    0.03951    0.05977    0.00237      0.07884      0.03277      0.00125      0.10897      0.00000      
50600   0.18375    0.03960    0.05982    0.00231      0.07893      0.03091      0.00140      0.11193      0.00000      
50700   0.18361    0.03954    0.05973    0.00234      0.07881      0.03178      0.00107      0.11021      0.00000      
50800   0.18309    0.03929    0.05964    0.00248      0.07872      0.02957      0.00236      0.10999      0.00000      
50900   0.18325    0.03930    0.05959    0.00255      0.07884      0.02974      0.00284      0.11210      0.00000      
51000   0.18307    0.03926    0.05955    0.00240      0.07889      0.02972      0.00266      0.10877      0.00000      
51100   0.18308    0.03917    0.05952    0.00233      0.07894      0.03117      0.00126      0.11163      0.00000      
51200   0.18231    0.03888    0.05924    0.00234      0.07876      0.03096      0.00198      0.10984      0.00000      
51300   0.18209    0.03868    0.05916    0.00268      0.07854      0.03031      0.00458      0.10967      0.00000      
51400   0.18160    0.03847    0.05900    0.00233      0.07866      0.03147      0.00219      0.10947      0.00000      
51500   0.18152    0.03837    0.05894    0.00257      0.07854      0.03097      0.00316      0.10955      0.00000      
51600   0.18170    0.03838    0.05894    0.00269      0.07878      0.02919      0.00260      0.10797      0.00000      
51700   0.18150    0.03842    0.05889    0.00224      0.07875      0.03203      0.00073      0.10938      0.00000      
51800   0.18134    0.03822    0.05885    0.00238      0.07878      0.03108      0.00246      0.10925      0.00000      
51900   0.18147    0.03830    0.05887    0.00244      0.07882      0.03045      0.00216      0.10738      0.00000      
52000   0.18137    0.03830    0.05881    0.00243      0.07873      0.03096      0.00250      0.10855      0.00000      
52100   0.18092    0.03828    0.05879    0.00233      0.07843      0.03080      0.00273      0.10838      0.00000      
52200   0.18099    0.03821    0.05877    0.00237      0.07839      0.03241      0.00280      0.10837      0.00000      
52300   0.18080    0.03814    0.05862    0.00220      0.07849      0.03349      0.00178      0.10864      0.00000      
52400   0.18070    0.03810    0.05859    0.00247      0.07847      0.03079      0.00402      0.10852      0.00000      
52500   0.18051    0.03796    0.05854    0.00245      0.07856      0.03001      0.00471      0.11024      0.00000      
52600   0.18085    0.03819    0.05862    0.00221      0.07869      0.03143      0.00269      0.10800      0.00000      
52700   0.18056    0.03806    0.05853    0.00235      0.07857      0.03059      0.00305      0.10835      0.00000      
52800   0.18075    0.03808    0.05849    0.00244      0.07852      0.03211      0.00070      0.10727      0.00000      
52900   0.18008    0.03783    0.05833    0.00250      0.07851      0.02909      0.00443      0.11203      0.00000      
53000   0.17990    0.03771    0.05820    0.00245      0.07846      0.03082      0.00325      0.10873      0.00000      
53100   0.17978    0.03779    0.05819    0.00238      0.07825      0.03160      0.00275      0.10802      0.00000      
53200   0.17966    0.03776    0.05821    0.00231      0.07835      0.03034      0.00221      0.10772      0.00000      
53300   0.17989    0.03762    0.05810    0.00239      0.07850      0.03292      0.00154      0.10713      0.00000      
53400   0.17962    0.03770    0.05814    0.00237      0.07831      0.03099      0.00239      0.10661      0.00000      
53500   0.17968    0.03757    0.05805    0.00259      0.07852      0.02942      0.00267      0.10512      0.00000      
53600   0.17933    0.03749    0.05798    0.00256      0.07814      0.03153      0.00262      0.10482      0.00000      
53700   0.17922    0.03738    0.05791    0.00233      0.07852      0.03079      0.00206      0.10875      0.00000      
53800   0.17897    0.03726    0.05770    0.00244      0.07857      0.02994      0.00297      0.10698      0.00000      
53900   0.17839    0.03708    0.05761    0.00249      0.07831      0.02902      0.00426      0.10636      0.00000      
54000   0.17838    0.03702    0.05753    0.00225      0.07840      0.03185      0.00227      0.10581      0.00000      
54100   0.17860    0.03718    0.05760    0.00222      0.07839      0.03209      0.00224      0.10746      0.00000      
54200   0.17815    0.03710    0.05756    0.00228      0.07820      0.03010      0.00377      0.10703      0.00000      
54300   0.17825    0.03704    0.05747    0.00239      0.07828      0.03080      0.00229      0.10768      0.00000      
54400   0.17797    0.03694    0.05736    0.00232      0.07831      0.03054      0.00331      0.10897      0.00000      
54500   0.17790    0.03689    0.05729    0.00248      0.07823      0.03004      0.00414      0.10765      0.00000      
54600   0.17786    0.03698    0.05737    0.00240      0.07795      0.03167      0.00407      0.10607      0.00000      
54700   0.17751    0.03670    0.05719    0.00256      0.07808      0.02986      0.00342      0.10584      0.00000      
54800   0.17720    0.03654    0.05706    0.00246      0.07809      0.03051      0.00340      0.10678      0.00000      
54900   0.17681    0.03639    0.05696    0.00222      0.07810      0.03137      0.00243      0.10751      0.00000      
55000   0.17696    0.03653    0.05701    0.00223      0.07815      0.03035      0.00260      0.10834      0.00000      
55100   0.17690    0.03638    0.05687    0.00228      0.07841      0.02967      0.00360      0.10804      0.00000      
55200   0.17679    0.03629    0.05681    0.00230      0.07816      0.03231      0.00327      0.10704      0.00000      
55300   0.17662    0.03621    0.05671    0.00259      0.07818      0.02924      0.00495      0.10684      0.00000      
55400   0.17664    0.03619    0.05673    0.00226      0.07828      0.03168      0.00195      0.10805      0.00000      
55500   0.17633    0.03611    0.05665    0.00233      0.07818      0.03059      0.00403      0.10845      0.00000      
55600   0.17628    0.03609    0.05664    0.00241      0.07815      0.02983      0.00374      0.10752      0.00000      
55700   0.17607    0.03615    0.05659    0.00233      0.07808      0.02926      0.00300      0.10808      0.00000      
55800   0.17611    0.03603    0.05655    0.00250      0.07816      0.02860      0.00387      0.10842      0.00000      
55900   0.17591    0.03600    0.05655    0.00253      0.07788      0.02955      0.00394      0.10677      0.00000      
56000   0.17578    0.03593    0.05653    0.00256      0.07785      0.02903      0.00408      0.10716      0.00000      
56100   0.17558    0.03584    0.05646    0.00232      0.07791      0.03055      0.00306      0.10807      0.00000      
56200   0.17543    0.03578    0.05641    0.00221      0.07783      0.03212      0.00310      0.10919      0.00000      
56300   0.17502    0.03552    0.05629    0.00228      0.07795      0.02982      0.00337      0.10855      0.00000      
56400   0.17491    0.03543    0.05625    0.00235      0.07787      0.03007      0.00214      0.10768      0.00000      
56500   0.17485    0.03545    0.05622    0.00217      0.07804      0.02970      0.00284      0.10920      0.00000      
56600   0.17492    0.03555    0.05622    0.00239      0.07788      0.02878      0.00182      0.10844      0.00000      
56700   0.17491    0.03559    0.05623    0.00231      0.07773      0.03051      0.00188      0.10861      0.00000      
56800   0.17473    0.03529    0.05606    0.00228      0.07807      0.03031      0.00205      0.10897      0.00000      
56900   0.17439    0.03529    0.05601    0.00249      0.07764      0.02951      0.00291      0.10822      0.00000      
57000   0.17448    0.03539    0.05602    0.00229      0.07773      0.03041      0.00273      0.10887      0.00000      
57100   0.17434    0.03537    0.05602    0.00231      0.07771      0.02934      0.00316      0.11052      0.00000      
57200   0.17441    0.03531    0.05600    0.00213      0.07782      0.03161      0.00245      0.11044      0.00000      
57300   0.17405    0.03516    0.05590    0.00222      0.07768      0.03080      0.00251      0.11105      0.00000      
57400   0.17412    0.03523    0.05589    0.00232      0.07779      0.02897      0.00194      0.11069      0.00000      
57500   0.17371    0.03510    0.05582    0.00222      0.07759      0.02979      0.00242      0.10859      0.00000      
57600   0.17358    0.03498    0.05569    0.00219      0.07758      0.03140      0.00208      0.10693      0.00000      
57700   0.17340    0.03498    0.05570    0.00225      0.07740      0.03065      0.00153      0.10711      0.00000      
57800   0.17367    0.03511    0.05577    0.00229      0.07742      0.03087      0.00211      0.10758      0.00000      
57900   0.17350    0.03504    0.05573    0.00234      0.07743      0.02961      0.00167      0.10772      0.00000      
58000   0.17328    0.03493    0.05566    0.00220      0.07767      0.02819      0.00334      0.10932      0.00000      
58100   0.17304    0.03483    0.05556    0.00220      0.07730      0.03150      0.00157      0.10825      0.00000      
58200   0.17302    0.03479    0.05549    0.00217      0.07743      0.03131      0.00197      0.10851      0.00000      
58300   0.17285    0.03478    0.05542    0.00221      0.07732      0.03124      0.00121      0.10810      0.00000      
58400   0.17270    0.03477    0.05542    0.00219      0.07726      0.03059      0.00161      0.10813      0.00000      
58500   0.17261    0.03472    0.05541    0.00223      0.07732      0.02938      0.00280      0.10769      0.00000      
58600   0.17271    0.03465    0.05540    0.00222      0.07727      0.03173      0.00079      0.10760      0.00000      
58700   0.17265    0.03471    0.05540    0.00224      0.07730      0.03011      0.00144      0.10727      0.00000      
58800   0.17251    0.03468    0.05537    0.00230      0.07717      0.02983      0.00274      0.10738      0.00000      
58900   0.17253    0.03461    0.05533    0.00225      0.07732      0.03026      0.00202      0.10738      0.00000      
59000   0.17226    0.03455    0.05527    0.00237      0.07717      0.02903      0.00334      0.10618      0.00000      
59100   0.17185    0.03430    0.05517    0.00225      0.07705      0.03078      0.00201      0.10639      0.00000      
59200   0.17200    0.03433    0.05519    0.00245      0.07709      0.02939      0.00313      0.10618      0.00000      
59300   0.17196    0.03426    0.05512    0.00251      0.07709      0.02980      0.00346      0.10612      0.00000      
59400   0.17188    0.03435    0.05511    0.00238      0.07718      0.02858      0.00429      0.10697      0.00000      
59500   0.17143    0.03418    0.05493    0.00225      0.07710      0.02960      0.00368      0.10683      0.00000      
59600   0.17162    0.03422    0.05492    0.00235      0.07709      0.03036      0.00351      0.10575      0.00000      
59700   0.17128    0.03407    0.05486    0.00216      0.07724      0.02951      0.00262      0.10624      0.00000      
59800   0.17138    0.03418    0.05486    0.00239      0.07718      0.02767      0.00354      0.10534      0.00000      
59900   0.17110    0.03388    0.05467    0.00228      0.07727      0.02988      0.00364      0.10468      0.00000      
60000   0.17079    0.03379    0.05463    0.00237      0.07709      0.02908      0.00300      0.10474      0.00000      
60100   0.17085    0.03386    0.05466    0.00214      0.07705      0.03145      0.00258      0.10473      0.00000      
60200   0.17091    0.03383    0.05468    0.00223      0.07721      0.02958      0.00194      0.10502      0.00000      
60300   0.17086    0.03387    0.05465    0.00220      0.07709      0.03057      0.00165      0.10490      0.00000      
60400   0.17065    0.03376    0.05457    0.00233      0.07709      0.02889      0.00462      0.10653      0.00000      
60500   0.17044    0.03373    0.05453    0.00225      0.07696      0.02968      0.00170      0.10661      0.00000      
60600   0.17049    0.03370    0.05452    0.00233      0.07709      0.02849      0.00377      0.10708      0.00000      
60700   0.17013    0.03347    0.05442    0.00231      0.07697      0.02957      0.00335      0.10743      0.00000      
60800   0.17015    0.03352    0.05441    0.00223      0.07709      0.02901      0.00254      0.10658      0.00000      
60900   0.17018    0.03355    0.05444    0.00228      0.07705      0.02866      0.00304      0.10590      0.00000      
61000   0.17009    0.03357    0.05442    0.00228      0.07709      0.02734      0.00340      0.10721      0.00000      
61100   0.17010    0.03349    0.05434    0.00223      0.07719      0.02852      0.00243      0.10598      0.00000      
61200   0.16985    0.03338    0.05423    0.00224      0.07715      0.02850      0.00369      0.10782      0.00000      
61300   0.16959    0.03325    0.05418    0.00210      0.07711      0.02950      0.00267      0.10640      0.00000      
61400   0.16966    0.03331    0.05415    0.00235      0.07711      0.02741      0.00357      0.10705      0.00000      
61500   0.16951    0.03331    0.05413    0.00207      0.07696      0.03045      0.00257      0.10600      0.00000      
61600   0.16933    0.03320    0.05406    0.00210      0.07695      0.03020      0.00258      0.10733      0.00000      
61700   0.16935    0.03315    0.05400    0.00227      0.07697      0.02953      0.00314      0.10607      0.00000      
61800   0.16906    0.03306    0.05391    0.00213      0.07712      0.02840      0.00256      0.10522      0.00000      
61900   0.16884    0.03295    0.05386    0.00220      0.07695      0.02882      0.00298      0.10634      0.00000      
62000   0.16886    0.03294    0.05384    0.00227      0.07697      0.02838      0.00348      0.10632      0.00000      
62100   0.16880    0.03303    0.05385    0.00224      0.07682      0.02864      0.00354      0.10669      0.00000      
62200   0.16887    0.03293    0.05381    0.00217      0.07705      0.02911      0.00344      0.10645      0.00000      
62300   0.16864    0.03277    0.05372    0.00233      0.07698      0.02839      0.00398      0.10712      0.00000      
62400   0.16859    0.03283    0.05373    0.00199      0.07702      0.03013      0.00346      0.10712      0.00000      
62500   0.16853    0.03276    0.05369    0.00215      0.07704      0.02884      0.00364      0.10660      0.00000      
62600   0.16844    0.03273    0.05367    0.00220      0.07678      0.03059      0.00324      0.10668      0.00000      
[...]
123400  0.14168    0.02007    0.04384    0.00191      0.07306      0.02785      0.00403      0.10225      0.00000      
123500  0.14165    0.02007    0.04383    0.00193      0.07307      0.02747      0.00398      0.10239      0.00000      
123600  0.14164    0.02006    0.04383    0.00194      0.07306      0.02750      0.00410      0.10236      0.00000      
123700  0.14161    0.02004    0.04382    0.00194      0.07307      0.02746      0.00423      0.10248      0.00000      
123800  0.14159    0.02003    0.04381    0.00192      0.07306      0.02765      0.00398      0.10224      0.00000      
123900  0.14158    0.02003    0.04380    0.00194      0.07306      0.02745      0.00407      0.10245      0.00000      
124000  0.14156    0.02002    0.04379    0.00192      0.07307      0.02761      0.00409      0.10239      0.00000      
124100  0.14155    0.02001    0.04378    0.00192      0.07305      0.02785      0.00398      0.10235      0.00000      
124200  0.14152    0.02000    0.04378    0.00193      0.07306      0.02750      0.00418      0.10239      0.00000      
124300  0.14150    0.02000    0.04377    0.00189      0.07306      0.02782      0.00397      0.10241      0.00000      
124400  0.14149    0.01999    0.04376    0.00193      0.07305      0.02752      0.00424      0.10229      0.00000      
124500  0.14147    0.01998    0.04375    0.00194      0.07305      0.02747      0.00440      0.10230      0.00000      
124600  0.14145    0.01998    0.04374    0.00189      0.07307      0.02776      0.00397      0.10232      0.00000      
124700  0.14143    0.01997    0.04373    0.00193      0.07304      0.02751      0.00410      0.10242      0.00000      
124800  0.14141    0.01996    0.04372    0.00191      0.07303      0.02780      0.00400      0.10222      0.00000      
124900  0.14139    0.01995    0.04371    0.00189      0.07304      0.02788      0.00396      0.10209      0.00000      
125000  0.14135    0.01994    0.04371    0.00193      0.07303      0.02752      0.00412      0.10184      0.00000      
125100  0.14134    0.01994    0.04370    0.00193      0.07304      0.02737      0.00419      0.10181      0.00000      
125200  0.14132    0.01993    0.04369    0.00189      0.07305      0.02760      0.00389      0.10196      0.00000      
125300  0.14130    0.01991    0.04368    0.00191      0.07304      0.02753      0.00408      0.10193      0.00000      
125400  0.14128    0.01990    0.04368    0.00191      0.07303      0.02753      0.00408      0.10233      0.00000      
125500  0.14125    0.01990    0.04367    0.00190      0.07302      0.02771      0.00396      0.10193      0.00000      
125600  0.14124    0.01989    0.04366    0.00191      0.07301      0.02758      0.00400      0.10173      0.00000      
125700  0.14122    0.01988    0.04365    0.00190      0.07303      0.02750      0.00399      0.10181      0.00000      
125800  0.14120    0.01987    0.04365    0.00194      0.07303      0.02708      0.00421      0.10216      0.00000      
125900  0.14118    0.01986    0.04364    0.00193      0.07302      0.02725      0.00401      0.10209      0.00000      
126000  0.14116    0.01985    0.04363    0.00194      0.07301      0.02736      0.00409      0.10219      0.00000      
126100  0.14114    0.01984    0.04363    0.00191      0.07302      0.02736      0.00396      0.10211      0.00000      
126200  0.14112    0.01984    0.04362    0.00190      0.07302      0.02753      0.00386      0.10198      0.00000      
126300  0.14110    0.01983    0.04361    0.00189      0.07299      0.02777      0.00400      0.10208      0.00000      
126400  0.14109    0.01983    0.04361    0.00191      0.07299      0.02753      0.00397      0.10192      0.00000      
126500  0.14106    0.01981    0.04360    0.00190      0.07299      0.02762      0.00403      0.10193      0.00000      
126600  0.14104    0.01981    0.04359    0.00189      0.07299      0.02763      0.00394      0.10193      0.00000      
126700  0.14103    0.01980    0.04358    0.00195      0.07298      0.02714      0.00414      0.10192      0.00000      
126800  0.14100    0.01979    0.04358    0.00191      0.07298      0.02738      0.00401      0.10189      0.00000      
126900  0.14099    0.01979    0.04357    0.00192      0.07299      0.02730      0.00408      0.10211      0.00000      
127000  0.14097    0.01978    0.04356    0.00191      0.07298      0.02746      0.00405      0.10199      0.00000      
127100  0.14095    0.01977    0.04355    0.00193      0.07298      0.02721      0.00412      0.10182      0.00000      
127200  0.14093    0.01976    0.04354    0.00192      0.07298      0.02727      0.00410      0.10186      0.00000      
127300  0.14091    0.01976    0.04353    0.00191      0.07298      0.02737      0.00399      0.10173      0.00000      
127400  0.14089    0.01974    0.04352    0.00190      0.07296      0.02757      0.00412      0.10190      0.00000      
127500  0.14087    0.01974    0.04351    0.00191      0.07297      0.02733      0.00409      0.10174      0.00000      
127600  0.14085    0.01972    0.04351    0.00190      0.07297      0.02748      0.00401      0.10170      0.00000      
127700  0.14083    0.01972    0.04350    0.00191      0.07294      0.02757      0.00408      0.10180      0.00000      
127800  0.14081    0.01971    0.04349    0.00189      0.07296      0.02755      0.00400      0.10180      0.00000      
127900  0.14079    0.01970    0.04348    0.00190      0.07295      0.02750      0.00392      0.10173      0.00000      
128000  0.14077    0.01970    0.04347    0.00191      0.07294      0.02738      0.00395      0.10180      0.00000      
128100  0.14074    0.01969    0.04347    0.00192      0.07295      0.02726      0.00402      0.10166      0.00000      
128200  0.14073    0.01968    0.04346    0.00188      0.07296      0.02754      0.00388      0.10184      0.00000      
128300  0.14070    0.01967    0.04345    0.00191      0.07293      0.02742      0.00404      0.10164      0.00000      
128400  0.14069    0.01967    0.04344    0.00190      0.07294      0.02731      0.00407      0.10170      0.00000      
128500  0.14067    0.01966    0.04343    0.00192      0.07293      0.02726      0.00400      0.10160      0.00000      
128600  0.14066    0.01966    0.04342    0.00190      0.07292      0.02757      0.00405      0.10172      0.00000      
128700  0.14064    0.01965    0.04342    0.00189      0.07294      0.02740      0.00392      0.10173      0.00000      
128800  0.14062    0.01964    0.04341    0.00190      0.07293      0.02736      0.00404      0.10185      0.00000      
128900  0.14060    0.01963    0.04340    0.00191      0.07292      0.02737      0.00410      0.10168      0.00000      
129000  0.14058    0.01962    0.04340    0.00190      0.07291      0.02758      0.00414      0.10171      0.00000      
129100  0.14056    0.01962    0.04339    0.00193      0.07290      0.02722      0.00422      0.10167      0.00000      
129200  0.14054    0.01960    0.04338    0.00191      0.07292      0.02732      0.00399      0.10180      0.00000      
129300  0.14053    0.01960    0.04337    0.00192      0.07291      0.02728      0.00412      0.10166      0.00000      
129400  0.14052    0.01959    0.04337    0.00188      0.07291      0.02769      0.00397      0.10171      0.00000      
129500  0.14049    0.01959    0.04336    0.00190      0.07291      0.02738      0.00401      0.10163      0.00000      
129600  0.14048    0.01958    0.04335    0.00188      0.07292      0.02745      0.00400      0.10180      0.00000      
129700  0.14046    0.01957    0.04335    0.00189      0.07289      0.02751      0.00410      0.10168      0.00000      
129800  0.14044    0.01956    0.04334    0.00188      0.07291      0.02749      0.00390      0.10164      0.00000      
129900  0.14042    0.01955    0.04333    0.00192      0.07290      0.02721      0.00416      0.10153      0.00000      
130000  0.14040    0.01954    0.04332    0.00189      0.07290      0.02742      0.00407      0.10175      0.00000      
130100  0.14038    0.01953    0.04331    0.00189      0.07290      0.02752      0.00388      0.10147      0.00000      
130200  0.14036    0.01953    0.04331    0.00188      0.07288      0.02763      0.00398      0.10154      0.00000      
130300  0.14034    0.01952    0.04330    0.00192      0.07289      0.02716      0.00416      0.10158      0.00000      
130400  0.14032    0.01951    0.04329    0.00190      0.07288      0.02730      0.00407      0.10166      0.00000      
130500  0.14031    0.01951    0.04329    0.00190      0.07288      0.02736      0.00405      0.10159      0.00000      
130600  0.14029    0.01950    0.04328    0.00188      0.07287      0.02761      0.00409      0.10166      0.00000      
130700  0.14027    0.01949    0.04327    0.00188      0.07287      0.02760      0.00399      0.10173      0.00000      
130800  0.14025    0.01948    0.04326    0.00191      0.07288      0.02720      0.00419      0.10166      0.00000      
130900  0.14023    0.01947    0.04326    0.00188      0.07287      0.02747      0.00417      0.10180      0.00000      
131000  0.14022    0.01947    0.04325    0.00188      0.07287      0.02748      0.00410      0.10158      0.00000      
131100  0.14020    0.01946    0.04324    0.00189      0.07286      0.02749      0.00405      0.10157      0.00000      
131200  0.14018    0.01946    0.04324    0.00190      0.07285      0.02737      0.00418      0.10176      0.00000      
131300  0.14016    0.01945    0.04323    0.00189      0.07286      0.02731      0.00417      0.10165      0.00000      
131400  0.14015    0.01944    0.04322    0.00190      0.07286      0.02718      0.00422      0.10171      0.00000      
131500  0.14013    0.01944    0.04322    0.00191      0.07285      0.02720      0.00414      0.10165      0.00000      
131600  0.14011    0.01943    0.04321    0.00187      0.07285      0.02763      0.00391      0.10164      0.00000      
131700  0.14010    0.01942    0.04320    0.00188      0.07284      0.02754      0.00430      0.10178      0.00000      
131800  0.14008    0.01942    0.04320    0.00190      0.07283      0.02739      0.00424      0.10176      0.00000      
131900  0.14006    0.01940    0.04319    0.00189      0.07283      0.02745      0.00412      0.10170      0.00000      
132000  0.14004    0.01940    0.04318    0.00188      0.07283      0.02748      0.00417      0.10181      0.00000      
132100  0.14003    0.01939    0.04317    0.00191      0.07283      0.02728      0.00424      0.10200      0.00000      
132200  0.14001    0.01938    0.04316    0.00190      0.07283      0.02728      0.00413      0.10186      0.00000      
132300  0.13999    0.01937    0.04316    0.00188      0.07283      0.02754      0.00399      0.10179      0.00000      
132400  0.13997    0.01937    0.04315    0.00189      0.07282      0.02738      0.00399      0.10182      0.00000      
132500  0.13995    0.01936    0.04315    0.00190      0.07283      0.02718      0.00402      0.10174      0.00000      
132600  0.13993    0.01935    0.04314    0.00189      0.07281      0.02740      0.00422      0.10168      0.00000      
132700  0.13992    0.01935    0.04313    0.00188      0.07281      0.02747      0.00421      0.10186      0.00000      
132800  0.13990    0.01934    0.04313    0.00189      0.07281      0.02723      0.00410      0.10171      0.00000      
132900  0.13988    0.01933    0.04312    0.00187      0.07281      0.02746      0.00402      0.10167      0.00000      
133000  0.13987    0.01933    0.04312    0.00188      0.07280      0.02734      0.00410      0.10163      0.00000      
133100  0.13985    0.01932    0.04311    0.00189      0.07280      0.02725      0.00410      0.10179      0.00000      
133200  0.13983    0.01931    0.04310    0.00186      0.07280      0.02761      0.00403      0.10165      0.00000      
133300  0.13981    0.01930    0.04309    0.00190      0.07279      0.02720      0.00412      0.10164      0.00000      
133400  0.13980    0.01930    0.04309    0.00187      0.07280      0.02743      0.00408      0.10178      0.00000      
133500  0.13978    0.01929    0.04308    0.00190      0.07279      0.02719      0.00407      0.10159      0.00000      
133600  0.13977    0.01929    0.04307    0.00188      0.07278      0.02741      0.00416      0.10174      0.00000      
133700  0.13975    0.01928    0.04307    0.00187      0.07279      0.02752      0.00403      0.10178      0.00000      
133800  0.13974    0.01928    0.04306    0.00189      0.07278      0.02722      0.00411      0.10175      0.00000      
133900  0.13972    0.01927    0.04305    0.00188      0.07279      0.02732      0.00418      0.10176      0.00000      
134000  0.13970    0.01927    0.04305    0.00187      0.07278      0.02740      0.00400      0.10168      0.00000      
134100  0.13969    0.01926    0.04304    0.00187      0.07278      0.02738      0.00406      0.10157      0.00000      
134200  0.13967    0.01926    0.04303    0.00189      0.07276      0.02726      0.00427      0.10182      0.00000      
134300  0.13966    0.01925    0.04302    0.00189      0.07277      0.02724      0.00425      0.10173      0.00000      
134400  0.13964    0.01924    0.04302    0.00189      0.07275      0.02731      0.00419      0.10167      0.00000      
134500  0.13962    0.01924    0.04302    0.00187      0.07277      0.02734      0.00414      0.10171      0.00000      
134600  0.13961    0.01923    0.04301    0.00188      0.07277      0.02721      0.00415      0.10171      0.00000      
134700  0.13959    0.01922    0.04300    0.00188      0.07275      0.02733      0.00416      0.10161      0.00000      
134800  0.13958    0.01921    0.04300    0.00189      0.07275      0.02728      0.00432      0.10173      0.00000      
134900  0.13956    0.01921    0.04299    0.00191      0.07275      0.02707      0.00430      0.10165      0.00000      
135000  0.13954    0.01920    0.04298    0.00189      0.07275      0.02717      0.00423      0.10164      0.00000      
135100  0.13953    0.01920    0.04298    0.00190      0.07274      0.02714      0.00434      0.10174      0.00000      
135200  0.13951    0.01919    0.04297    0.00189      0.07274      0.02728      0.00424      0.10175      0.00000      
135300  0.13949    0.01919    0.04296    0.00190      0.07273      0.02716      0.00428      0.10164      0.00000      
135400  0.13948    0.01918    0.04296    0.00189      0.07272      0.02723      0.00430      0.10154      0.00000      
135500  0.13946    0.01917    0.04295    0.00189      0.07273      0.02711      0.00423      0.10152      0.00000      
135600  0.13944    0.01917    0.04294    0.00191      0.07273      0.02698      0.00422      0.10172      0.00000      
135700  0.13943    0.01916    0.04294    0.00188      0.07272      0.02727      0.00416      0.10172      0.00000      
135800  0.13941    0.01916    0.04293    0.00190      0.07273      0.02701      0.00427      0.10166      0.00000      
135900  0.13939    0.01915    0.04292    0.00189      0.07272      0.02707      0.00426      0.10180      0.00000      
136000  0.13938    0.01914    0.04292    0.00189      0.07272      0.02707      0.00425      0.10167      0.00000      
136100  0.13936    0.01913    0.04291    0.00187      0.07273      0.02722      0.00419      0.10174      0.00000      
136200  0.13935    0.01913    0.04290    0.00187      0.07272      0.02720      0.00423      0.10157      0.00000      
136300  0.13933    0.01912    0.04290    0.00187      0.07272      0.02714      0.00421      0.10161      0.00000      
136400  0.13932    0.01912    0.04289    0.00188      0.07271      0.02718      0.00423      0.10178      0.00000      
136500  0.13931    0.01912    0.04289    0.00187      0.07272      0.02719      0.00411      0.10162      0.00000      
136600  0.13928    0.01910    0.04288    0.00188      0.07272      0.02706      0.00420      0.10166      0.00000      
136700  0.13927    0.01910    0.04287    0.00187      0.07270      0.02724      0.00405      0.10164      0.00000      
136800  0.13925    0.01909    0.04286    0.00187      0.07270      0.02724      0.00409      0.10157      0.00000      
136900  0.13924    0.01909    0.04286    0.00188      0.07270      0.02707      0.00407      0.10148      0.00000      
137000  0.13922    0.01908    0.04285    0.00189      0.07270      0.02696      0.00422      0.10137      0.00000      
137100  0.13921    0.01908    0.04284    0.00189      0.07269      0.02702      0.00419      0.10145      0.00000      
137200  0.13919    0.01907    0.04284    0.00188      0.07269      0.02715      0.00420      0.10142      0.00000      
137300  0.13918    0.01907    0.04283    0.00188      0.07269      0.02707      0.00424      0.10145      0.00000      
137400  0.13916    0.01906    0.04282    0.00186      0.07269      0.02733      0.00409      0.10153      0.00000      
137500  0.13914    0.01905    0.04281    0.00188      0.07268      0.02717      0.00422      0.10145      0.00000      
137600  0.13913    0.01905    0.04281    0.00187      0.07269      0.02707      0.00412      0.10144      0.00000      
137700  0.13911    0.01904    0.04280    0.00188      0.07267      0.02715      0.00416      0.10140      0.00000      
137800  0.13909    0.01903    0.04280    0.00188      0.07267      0.02709      0.00417      0.10140      0.00000      
137900  0.13908    0.01903    0.04279    0.00189      0.07267      0.02697      0.00413      0.10141      0.00000      
138000  0.13906    0.01902    0.04279    0.00188      0.07266      0.02710      0.00419      0.10125      0.00000      
138100  0.13905    0.01902    0.04278    0.00188      0.07266      0.02717      0.00411      0.10136      0.00000      
138200  0.13903    0.01901    0.04277    0.00189      0.07265      0.02705      0.00417      0.10141      0.00000      
138300  0.13901    0.01901    0.04276    0.00187      0.07265      0.02724      0.00404      0.10127      0.00000      
138400  0.13899    0.01900    0.04276    0.00188      0.07265      0.02705      0.00413      0.10123      0.00000      
138500  0.13898    0.01900    0.04275    0.00186      0.07266      0.02723      0.00401      0.10136      0.00000      
138600  0.13897    0.01899    0.04274    0.00189      0.07264      0.02701      0.00419      0.10124      0.00000      
138700  0.13895    0.01899    0.04274    0.00187      0.07264      0.02711      0.00415      0.10122      0.00000      
138800  0.13893    0.01898    0.04273    0.00186      0.07263      0.02724      0.00417      0.10115      0.00000      
138900  0.13892    0.01897    0.04272    0.00187      0.07263      0.02721      0.00415      0.10125      0.00000      
139000  0.13890    0.01897    0.04272    0.00188      0.07264      0.02697      0.00421      0.10133      0.00000      
139100  0.13889    0.01897    0.04271    0.00188      0.07262      0.02712      0.00422      0.10135      0.00000      
139200  0.13887    0.01896    0.04270    0.00189      0.07262      0.02700      0.00432      0.10142      0.00000      
139300  0.13886    0.01896    0.04270    0.00188      0.07262      0.02698      0.00425      0.10137      0.00000      
139400  0.13884    0.01895    0.04269    0.00187      0.07261      0.02708      0.00418      0.10136      0.00000      
139500  0.13883    0.01895    0.04268    0.00189      0.07261      0.02703      0.00425      0.10131      0.00000      
139600  0.13881    0.01894    0.04268    0.00189      0.07260      0.02704      0.00427      0.10128      0.00000      
139700  0.13880    0.01894    0.04267    0.00188      0.07260      0.02702      0.00414      0.10110      0.00000      
139800  0.13878    0.01893    0.04267    0.00186      0.07260      0.02722      0.00408      0.10118      0.00000      
139900  0.13876    0.01893    0.04266    0.00188      0.07260      0.02703      0.00422      0.10121      0.00000      
