135
Lattice="13.13174437 4.79388483 1.10865198 -5.14466365 12.49944084 4.67338707 0.23022532 -4.6055739 13.3936295" Properties=species:S:1:pos:R:3:forces:R:3 energy=-234.1767594560515 pbc="T T T"
Ba       1.83478515       2.20800938       3.22352448       0.27571660      -0.84509259      -1.69784756
Zr      13.23306191       0.37316530      14.56277332      -0.69381020      -0.94637218       1.45724121
S       -4.61031599      11.21540724       6.58909752      -0.30746505      -0.36484003       0.87080522
S       -0.63491230       1.93111264       1.63102429      -0.34688180      -0.14845918       0.49857038
S        2.11874081       1.06021898       0.34895145       0.06096120      -0.38395461      -0.09689195
Ba       1.81894866       0.17441186       7.46693740      -1.09094646      -0.37731241      -0.58466044
Zr      -4.85650474      11.02311668       8.97493800       0.14140354       0.39414396      -0.09988934
S        8.08886839      14.90298590      12.35853514       0.04244564       0.69047210       1.11673047
S       -0.65498153       0.73969778       5.02987237       0.80371387      -0.92407780      -0.36455387
S       -2.34993824      10.94224417       9.06193129      -1.68777469       0.73196090      -0.51851891
Ba       1.47112151      -0.72694675      12.35210127       0.13338439      -0.51646907      -0.46706802
Zr       0.22306545      -2.89932496       9.07844869       0.52575766       1.45879623      -1.12314403
S        0.01032119      -3.35188303      11.38944675      -0.34598358       0.13185790      -0.26174928
S       -0.00653705      -0.55151069       9.61403071       1.03820472      -1.60346621      -0.30295169
S       -2.54869016       9.83742453      13.68808569      -0.16366088       0.21857022      -0.34516887
Ba      -0.56656165       6.41322229       4.71643667      -0.16890036       0.70633072      -0.01026295
Zr      11.51337273       4.18919407      15.95161439      -0.47943198       0.40332711       0.88503556
S       11.08119599       8.78674418       5.03229405      -1.25148695      -0.60041573      -1.54279074
S       10.59205397       6.50275656      16.61039531      -0.12698666      -0.48927431       0.06000556
S        0.65195773       0.29257281      14.99052798      -0.64749521       0.00893187       0.57927467
Ba      -0.57422673       4.81326805       9.27185432       1.78055371      -0.42961251       1.17175101
Zr      -1.50861495       2.82569962       5.91027665      -0.82439529      -0.21751789       0.98204065
S       -1.35658340       1.86782674       8.19953724       0.03414823       0.93167868      -1.82689348
S       -2.19710802       5.01831581       6.95743313       0.24925882      -0.95291546      -0.91118628
S        0.52146835       3.67580569       5.11562026       0.25801635       0.81158685       0.67135486
Ba      -0.55019480       3.18151372      13.76418449      -0.43374849      -0.26611886       0.93484747
Zr      -1.35460160       1.16370145      10.41715618      -1.26068433      -0.13881430       0.60495046
S       11.66717181       4.65332888      13.63405337      -0.85284723      -0.36391217       0.38903016
S       10.61936980       7.82969456      12.44579271      -0.06923598       1.44409021       0.50991371
S        0.58744640       1.99114470      11.54500192      -0.11428864       0.12721435      -0.96856473
Ba      -1.68211519      10.69975763       6.07711033      -0.39279687      -0.17056726      -0.32179372
Zr       9.75122149       8.62881497      17.64797080       0.86896878       0.12879258      -1.19618831
S       -3.40544856       7.88177751       5.49940988       0.10817007       0.21242445      -0.95748233
S       -3.93271199       6.12038547      17.04995515      -0.78128604      -0.09463246      -0.32966155
S       -1.04005294       4.67122371      16.47046257      -1.48657503      -0.05552880      -0.48081434
Ba      -2.28278354       8.68796106      10.88461830       0.60753838       0.06135477       0.62499319
Zr      -3.39579020       6.97636265       7.69403680       1.56054193      -0.24334222      -0.74412158
S       -3.04092626       6.04887841       9.86378403       0.04960865      -0.39982498       1.95132000
S        8.60102220      13.40394772       9.94333016      -1.36807911       1.36047126      -0.23392138
S       -1.42143898       8.41519388       7.88339252      -0.12931340      -0.56170438       0.40822399
Ba      -2.02242779       7.59516756      15.49963787       0.08977664      -0.02003248       0.10514376
Zr       9.71707986      10.10867844      13.40763220      -0.75413994      -1.55826854      -0.65693288
S        8.88540531       8.75616889      15.24169233       0.61769837       1.37839504       0.31050172
S        8.82574396      12.14872009      14.24507975      -0.41174659      -1.06865376      -0.09945461
S       -1.20897890       6.09874354      12.96936147      -0.80126648      -0.37346351      -0.39560395
Ba       5.63099453       3.73781143       3.90555077      -0.02515771       0.35647915      -0.61995138
Zr      -0.71092391      13.94913515       5.08365161       0.84610981       1.15436639       1.08340600
S       -0.07731145      13.38183046       7.33132601      -1.06821002      -0.68115621      -0.07427442
S        3.79342600       3.71880901       1.34274019       0.10908007       0.56522039       0.29939177
S        1.56982785      10.35274813      17.80271725       1.07112650       0.73588996      -0.11882176
Ba       5.76182138       1.92783247       8.43767773       0.96870641       0.17241623      -1.65086885
Zr      -0.54483215      12.28702260       9.68138649       1.65745098       0.59801715      -1.08394858
S       -0.58547487      11.40469017      11.89046586       0.85519403      -0.64719278      -0.59292601
S        3.30779778       1.78539836       5.60627541       0.19701657       1.08608285       0.42687831
S        6.32230771       1.40482649       5.53859587       0.50221895      -0.47900384       0.40777163
Ba       5.67538950       0.60083318      12.46774202       0.15541907       0.83808419       0.19661251
Zr      -0.34536040      10.66707548      14.23061309      -0.22818716       0.33942562      -0.13494176
S        4.07487621      -1.79669912      11.80084400      -0.22659147      -0.51091936      -0.96639156
S        3.67938185       0.52306499       9.60745070      -0.86468415       0.10999386       2.17111051
S        1.79214095      11.68183995      14.45940211      -1.56132254      -1.04991152      -0.28075813
Ba       3.89608926       7.77624702       4.79241991       0.15818537       1.27242217       0.83030836
Zr       2.78490748       1.16525947      15.12687200       1.94375897      -0.81648024      -0.02855454
S        3.06128140       5.15400050       4.26149853       0.08750195      -0.46294285      -1.51320853
S        1.58265243       7.47959801       2.96508839      -0.98882957       1.68969113       0.71841926
S        4.79629825       2.60674220      15.19176622       1.00213090      -0.64789806       1.80631352
Ba       4.01523333       6.44991195       9.59938263       0.05476126       0.23471597       0.04124847
Zr       2.61276295       4.14870494       6.32411575      -0.49697141      -0.14783302       1.54216717
S        1.79187701       2.99658595       8.32046174      -0.10038065      -0.06634196       0.57658172
S        1.13967144       6.03853766       7.19822530       1.00310482      -0.09833454       0.28607785
S        4.82830974       4.80594666       7.16614789      -0.68067289      -0.23215711      -0.42595729
Ba       4.51631035       4.99921373      13.74103217       0.06329328       0.44377011      -0.66282749
Zr       2.67605962       2.60728086      10.58233288       0.59306597       0.05544452      -0.78469755
S        2.98787822       2.18256405      12.97244317       0.41611360      -0.54018094       0.11684096
S        2.18809740       4.91760193      11.13491125      -1.50434446       0.64059009       0.22119969
S        4.92941519       3.63181375      10.75341476      -0.25991414       0.02581977      -0.20274325
Ba       2.53575958      11.56383219       6.31974982      -0.41998565       0.60338635       0.03120134
Zr       1.23678880       5.23341694      16.46213203      -0.49996707      -0.32337740       1.14431978
S        0.79129082       9.10072021       5.62716084       0.66034674       0.43862128      -1.27221242
S        0.49248282       7.51376564      17.34843904       0.23764770      -1.41764782      -0.51661646
S        3.39986079       6.17336942      16.54001420       1.41565985      -0.74319358       0.69884452
Ba       2.45935135      10.52462398      11.53750700      -1.52406713       0.45891799       0.14705536
Zr       0.98735758       8.39662233       8.00091200      -1.10800669      -1.05161348      -0.74787299
S        0.65456412       7.93045819      10.38465341       0.28002474      -0.44437522       0.77529399
S        1.06216494      10.66469522       8.65424982      -0.31918006       1.65473910       1.36907300
S        3.28192265       8.60185082       7.70758114       2.21378873       0.49249807      -0.30178156
Ba       2.92081822       8.86513199      15.68716636       0.84670096       1.25490402      -0.25420593
Zr       1.01481210       6.70141268      12.43677184       1.18041413      -0.13570570      -0.53393777
S        1.67586335       5.04554272      14.12580135      -0.60840615      -0.10918241       0.18597619
S        0.60149983       8.43291858      14.11894903      -0.58542927       0.57670083      -0.23398223
S        3.33796920       7.61461167      12.75980807      -1.32557618      -0.21383118      -0.14855790
Ba       9.91723014       5.44885468       4.24405717       0.40067818       0.49995840      -0.28593936
Zr       8.52941467       3.20276925       0.85351984      -0.02991500      -0.23274745       0.40331062
S        2.62391424      14.50445521       7.39570286       1.03389347      -0.59164455       1.52827784
S        7.52943587       0.52375914      14.85233580      -0.61606667       0.82065859       0.81845983
S       10.61025067       4.49655880       1.31194759       0.39279012      -0.86808018       0.18529267
Ba      10.48949304       3.93779771       7.95739247      -0.14623076      -0.00834205       0.78921687
Zr       8.69197500       1.71295487       5.08830999      -0.06048532      -0.30042708      -0.34070839
S        3.65572358      13.30694101      12.05025104       0.55795383       0.30560732       0.53707986
S        7.99258899       3.86506375       5.77036416       0.28968494       1.17559061      -0.14108045
S       11.01633244       2.81010152       5.17013608      -1.10095696      -0.90650605      -0.51478777
Ba      10.02596356       2.09135289      12.65769744       0.13303401       1.07042522       0.96990851
Zr       9.01518824       0.23339254       9.82582002       0.84241208       0.09424271      -1.86220463
S        4.12380674      11.78238787      16.64631491      -0.55753789       0.09742751      -0.04676697
S        7.78258742       2.03942212      10.71759361       0.00207058      -0.51889896       0.33074800
S       11.08885093       1.49904642       9.83429399      -1.31233942      -0.23543751      -0.16747862
Ba       8.30542919       9.76703191       5.48234304       0.68984098      -0.60656111       0.83873806
Zr       7.15782960       2.90209208      15.62839697      -0.46046670      -1.68230175      -0.78380190
S        6.83186923       6.88855434       4.70797306      -0.39230030       0.24277711      -1.85551192
S        6.84967521       5.10351760      16.40566598       0.63265521      -0.09427921      -0.23282710
S        9.55637582       2.78040882      15.56707775       0.32889129       0.98191406      -0.03773804
Ba       8.99577710       8.03570148       9.76497712      -0.42646764      -0.43217503       0.56945732
Zr       6.97290978       5.91153368       6.80216276       0.21834804      -0.53683206       1.43290348
S        7.61463114       4.28990174       8.59356102       0.27441649       0.34332681      -0.62026944
S        6.37829399       7.70814788       8.27844958      -0.06264985      -0.28439495       0.05104163
S        9.10345174       7.06592714       6.96048619       1.94954206      -0.41117548      -0.20784895
Ba       8.74144469       6.11490652      14.05998907       0.03847653      -0.12973564      -0.12507493
Zr       7.21963085       4.40642781      10.86932533       0.77819916      -0.61846422       0.84913948
S        7.12542082       3.76932401      13.33371081       0.71163943      -0.80374379      -0.11487658
S        6.71334153       6.54639766      11.57161818      -0.85056719       1.36682069       0.23816252
S        9.66502760       4.80059189      11.13103450      -0.39245816      -0.16127481      -0.23199734
Ba       6.54985268      13.59386237       7.41736892       0.44468862       0.05527707      -0.69968190
Zr       5.36985150      11.46273248       3.91733994      -0.33875797       1.57926971      -0.92026378
S        5.41220963      10.48607224       6.07982625      -0.44974806      -0.83379185      -0.14093785
S        4.47648563      13.53750243       4.91319145       0.27841144       0.06443285      -0.33423577
S        7.36775794      12.47994334       4.69615651      -0.41984948       0.57035281      -0.09468351
Ba       6.70993424      12.03382247      11.75140930      -0.55429950       0.85264328      -0.46529445
Zr       5.37980734       9.94205091       8.43324137       0.11942887      -0.99499086      -1.02092328
S        4.79864579       9.47644575      10.61507674       0.66980357      -0.87993596       0.62880731
S        4.42473813      12.07245435       8.94415814      -0.39866538       0.66128563      -0.03697056
S        7.66935728      10.59438910       8.80517220      -1.20801232      -0.13158462      -0.67144597
Ba       6.70395853      10.86807609      16.17746206       1.46910257      -1.09708889       0.21561747
Zr       5.50997283       8.40116075      12.67758211       1.86127296       1.06833986       0.44502232
S        5.98782947       7.77363338      14.91779189      -0.02472855      -0.32423225       1.00317088
S        4.96167819      10.62723129      13.70872411      -0.26918367      -0.11169859       0.11983208
S        7.75197238       9.38678261      12.13300925      -0.42312493      -0.11867885       0.47949191
