------------------------------------------------------------
          Invoking FHI-aims ...

          When using FHI-aims, please cite the following reference:

            Volker Blum, Ralf Gehrke, Felix Hanke, Paula Havu,
            Ville Havu, Xinguo Ren, Karsten Reuter, and Matthias Scheffler,
            'Ab Initio Molecular Simulations with Numeric Atom-Centered Orbitals',
            Computer Physics Communications 180, 2175-2196 (2009)

          In addition, many other developments in FHI-aims are likely important for
          your particular application. A partial list of references is given at the end of
          this file. Thank you for giving credit to the authors of these developments.

          For any questions about FHI-aims, please visit our slack channel at

            https://fhi-aims.slack.com

          and our main development and support site at

            https://aims-git.rz-berlin.mpg.de .

          The latter site, in particular, has a wiki to collect information, as well
          as an issue tracker to log discussions, suggest improvements, and report issues
          or bugs. https://aims-git.rz-berlin.mpg.de is also the main development site
          of the project and all new and updated code versions can be obtained there.
          Please send an email to aims-coordinators@fhi-berlin.mpg.de and we will add
          you to these sites. They are for you and everyone is welcome there.

------------------------------------------------------------



  Date     :  20221029, Time     :  171238.450
  Time zero on CPU 1             :   0.107516100000000E+01  s.
  Internal wall clock time zero  :           436295558.450  s.

  FHI-aims created a unique identifier for this run for later identification
  aims_uuid : B3149035-9817-4480-A555-F370DD6AF8A4

  Build configuration of the current instance of FHI-aims
  -------------------------------------------------------
  FHI-aims version      : 220619
  Commit number         : 375d76c9a
  CMake host system     : Linux-4.12.14-197.78_9.1.64-cray_shasta_c
  CMake version         : 3.22.1
  Fortran compiler      : /opt/cray/pe/craype/2.7.6/bin/ftn (GNU) version 10.2.0
  Fortran compiler flags: -O2 -fallow-argument-mismatch -ffree-line-length-none
  C compiler            : /opt/cray/pe/craype/2.7.6/bin/cc (GNU) version 10.2.0
  C compiler flags      : -O2
  Using MPI
  Using ScaLAPACK
  Using LibXC
  Using i-PI
  Using RLSY
  Linking against:

  Using     1152 parallel tasks.
  Task        0 on host nid003398 reporting.
  Task        1 on host nid003398 reporting.
  Task        2 on host nid003398 reporting.
  Task        3 on host nid003398 reporting.
  Task        4 on host nid003398 reporting.
  Task        5 on host nid003398 reporting.
  Task        6 on host nid003398 reporting.
  Task        7 on host nid003398 reporting.
  Task        8 on host nid003398 reporting.
  Task        9 on host nid003398 reporting.
  Task       10 on host nid003398 reporting.
  Task       11 on host nid003398 reporting.
  Task       12 on host nid003398 reporting.
  Task       13 on host nid003398 reporting.
  Task       14 on host nid003398 reporting.
  Task       15 on host nid003398 reporting.
  Task       16 on host nid003398 reporting.
  Task       17 on host nid003398 reporting.
  Task       18 on host nid003398 reporting.
  Task       19 on host nid003398 reporting.
  Task       20 on host nid003398 reporting.
  Task       21 on host nid003398 reporting.
  Task       22 on host nid003398 reporting.
  Task       23 on host nid003398 reporting.
  Task       24 on host nid003398 reporting.
  Task       25 on host nid003398 reporting.
  Task       26 on host nid003398 reporting.
  Task       27 on host nid003398 reporting.
  Task       28 on host nid003398 reporting.
  Task       29 on host nid003398 reporting.
  Task       30 on host nid003398 reporting.
  Task       31 on host nid003398 reporting.
  Task       32 on host nid003398 reporting.
  Task       33 on host nid003398 reporting.
  Task       34 on host nid003398 reporting.
  Task       35 on host nid003398 reporting.
  Task       36 on host nid003420 reporting.
  Task       37 on host nid003420 reporting.
  Task       38 on host nid003420 reporting.
  Task       39 on host nid003420 reporting.
  Task       40 on host nid003420 reporting.
  Task       41 on host nid003420 reporting.
  Task       42 on host nid003420 reporting.
  Task       43 on host nid003420 reporting.
  Task       44 on host nid003420 reporting.
  Task       45 on host nid003420 reporting.
  Task       46 on host nid003420 reporting.
  Task       47 on host nid003420 reporting.
  Task       48 on host nid003420 reporting.
  Task       49 on host nid003420 reporting.
  Task       50 on host nid003420 reporting.
  Task       51 on host nid003420 reporting.
  Task       52 on host nid003420 reporting.
  Task       53 on host nid003420 reporting.
  Task       54 on host nid003420 reporting.
  Task       55 on host nid003420 reporting.
  Task       56 on host nid003420 reporting.
  Task       57 on host nid003420 reporting.
  Task       58 on host nid003420 reporting.
  Task       59 on host nid003420 reporting.
  Task       60 on host nid003420 reporting.
  Task       61 on host nid003420 reporting.
  Task       62 on host nid003420 reporting.
  Task       63 on host nid003420 reporting.
  Task       64 on host nid003420 reporting.
  Task       65 on host nid003420 reporting.
  Task       66 on host nid003420 reporting.
  Task       67 on host nid003420 reporting.
  Task       68 on host nid003420 reporting.
  Task       69 on host nid003420 reporting.
  Task       70 on host nid003420 reporting.
  Task       71 on host nid003420 reporting.
  Task       72 on host nid003428 reporting.
  Task       73 on host nid003428 reporting.
  Task       74 on host nid003428 reporting.
  Task       75 on host nid003428 reporting.
  Task       76 on host nid003428 reporting.
  Task       77 on host nid003428 reporting.
  Task       78 on host nid003428 reporting.
  Task       79 on host nid003428 reporting.
  Task       80 on host nid003428 reporting.
  Task       81 on host nid003428 reporting.
  Task       82 on host nid003428 reporting.
  Task       83 on host nid003428 reporting.
  Task       84 on host nid003428 reporting.
  Task       85 on host nid003428 reporting.
  Task       86 on host nid003428 reporting.
  Task       87 on host nid003428 reporting.
  Task       88 on host nid003428 reporting.
  Task       89 on host nid003428 reporting.
  Task       90 on host nid003428 reporting.
  Task       91 on host nid003428 reporting.
  Task       92 on host nid003428 reporting.
  Task       93 on host nid003428 reporting.
  Task       94 on host nid003428 reporting.
  Task       95 on host nid003428 reporting.
  Task       96 on host nid003428 reporting.
  Task       97 on host nid003428 reporting.
  Task       98 on host nid003428 reporting.
  Task       99 on host nid003428 reporting.
  Task      100 on host nid003428 reporting.
  Task      101 on host nid003428 reporting.
  Task      102 on host nid003428 reporting.
  Task      103 on host nid003428 reporting.
  Task      104 on host nid003428 reporting.
  Task      105 on host nid003428 reporting.
  Task      106 on host nid003428 reporting.
  Task      107 on host nid003428 reporting.
  Task      108 on host nid005186 reporting.
  Task      109 on host nid005186 reporting.
  Task      110 on host nid005186 reporting.
  Task      111 on host nid005186 reporting.
  Task      112 on host nid005186 reporting.
  Task      113 on host nid005186 reporting.
  Task      114 on host nid005186 reporting.
  Task      115 on host nid005186 reporting.
  Task      116 on host nid005186 reporting.
  Task      117 on host nid005186 reporting.
  Task      118 on host nid005186 reporting.
  Task      119 on host nid005186 reporting.
  Task      120 on host nid005186 reporting.
  Task      121 on host nid005186 reporting.
  Task      122 on host nid005186 reporting.
  Task      123 on host nid005186 reporting.
  Task      124 on host nid005186 reporting.
  Task      125 on host nid005186 reporting.
  Task      126 on host nid005186 reporting.
  Task      127 on host nid005186 reporting.
  Task      128 on host nid005186 reporting.
  Task      129 on host nid005186 reporting.
  Task      130 on host nid005186 reporting.
  Task      131 on host nid005186 reporting.
  Task      132 on host nid005186 reporting.
  Task      133 on host nid005186 reporting.
  Task      134 on host nid005186 reporting.
  Task      135 on host nid005186 reporting.
  Task      136 on host nid005186 reporting.
  Task      137 on host nid005186 reporting.
  Task      138 on host nid005186 reporting.
  Task      139 on host nid005186 reporting.
  Task      140 on host nid005186 reporting.
  Task      141 on host nid005186 reporting.
  Task      142 on host nid005186 reporting.
  Task      143 on host nid005186 reporting.
  Task      144 on host nid005187 reporting.
  Task      145 on host nid005187 reporting.
  Task      146 on host nid005187 reporting.
  Task      147 on host nid005187 reporting.
  Task      148 on host nid005187 reporting.
  Task      149 on host nid005187 reporting.
  Task      150 on host nid005187 reporting.
  Task      151 on host nid005187 reporting.
  Task      152 on host nid005187 reporting.
  Task      153 on host nid005187 reporting.
  Task      154 on host nid005187 reporting.
  Task      155 on host nid005187 reporting.
  Task      156 on host nid005187 reporting.
  Task      157 on host nid005187 reporting.
  Task      158 on host nid005187 reporting.
  Task      159 on host nid005187 reporting.
  Task      160 on host nid005187 reporting.
  Task      161 on host nid005187 reporting.
  Task      162 on host nid005187 reporting.
  Task      163 on host nid005187 reporting.
  Task      164 on host nid005187 reporting.
  Task      165 on host nid005187 reporting.
  Task      166 on host nid005187 reporting.
  Task      167 on host nid005187 reporting.
  Task      168 on host nid005187 reporting.
  Task      169 on host nid005187 reporting.
  Task      170 on host nid005187 reporting.
  Task      171 on host nid005187 reporting.
  Task      172 on host nid005187 reporting.
  Task      173 on host nid005187 reporting.
  Task      174 on host nid005187 reporting.
  Task      175 on host nid005187 reporting.
  Task      176 on host nid005187 reporting.
  Task      177 on host nid005187 reporting.
  Task      178 on host nid005187 reporting.
  Task      179 on host nid005187 reporting.
  Task      180 on host nid005188 reporting.
  Task      181 on host nid005188 reporting.
  Task      182 on host nid005188 reporting.
  Task      183 on host nid005188 reporting.
  Task      184 on host nid005188 reporting.
  Task      185 on host nid005188 reporting.
  Task      186 on host nid005188 reporting.
  Task      187 on host nid005188 reporting.
  Task      188 on host nid005188 reporting.
  Task      189 on host nid005188 reporting.
  Task      190 on host nid005188 reporting.
  Task      191 on host nid005188 reporting.
  Task      192 on host nid005188 reporting.
  Task      193 on host nid005188 reporting.
  Task      194 on host nid005188 reporting.
  Task      195 on host nid005188 reporting.
  Task      196 on host nid005188 reporting.
  Task      197 on host nid005188 reporting.
  Task      198 on host nid005188 reporting.
  Task      199 on host nid005188 reporting.
  Task      200 on host nid005188 reporting.
  Task      201 on host nid005188 reporting.
  Task      202 on host nid005188 reporting.
  Task      203 on host nid005188 reporting.
  Task      204 on host nid005188 reporting.
  Task      205 on host nid005188 reporting.
  Task      206 on host nid005188 reporting.
  Task      207 on host nid005188 reporting.
  Task      208 on host nid005188 reporting.
  Task      209 on host nid005188 reporting.
  Task      210 on host nid005188 reporting.
  Task      211 on host nid005188 reporting.
  Task      212 on host nid005188 reporting.
  Task      213 on host nid005188 reporting.
  Task      214 on host nid005188 reporting.
  Task      215 on host nid005188 reporting.
  Task      216 on host nid005189 reporting.
  Task      217 on host nid005189 reporting.
  Task      218 on host nid005189 reporting.
  Task      219 on host nid005189 reporting.
  Task      220 on host nid005189 reporting.
  Task      221 on host nid005189 reporting.
  Task      222 on host nid005189 reporting.
  Task      223 on host nid005189 reporting.
  Task      224 on host nid005189 reporting.
  Task      225 on host nid005189 reporting.
  Task      226 on host nid005189 reporting.
  Task      227 on host nid005189 reporting.
  Task      228 on host nid005189 reporting.
  Task      229 on host nid005189 reporting.
  Task      230 on host nid005189 reporting.
  Task      231 on host nid005189 reporting.
  Task      232 on host nid005189 reporting.
  Task      233 on host nid005189 reporting.
  Task      234 on host nid005189 reporting.
  Task      235 on host nid005189 reporting.
  Task      236 on host nid005189 reporting.
  Task      237 on host nid005189 reporting.
  Task      238 on host nid005189 reporting.
  Task      239 on host nid005189 reporting.
  Task      240 on host nid005189 reporting.
  Task      241 on host nid005189 reporting.
  Task      242 on host nid005189 reporting.
  Task      243 on host nid005189 reporting.
  Task      244 on host nid005189 reporting.
  Task      245 on host nid005189 reporting.
  Task      246 on host nid005189 reporting.
  Task      247 on host nid005189 reporting.
  Task      248 on host nid005189 reporting.
  Task      249 on host nid005189 reporting.
  Task      250 on host nid005189 reporting.
  Task      251 on host nid005189 reporting.
  Task      252 on host nid005216 reporting.
  Task      253 on host nid005216 reporting.
  Task      254 on host nid005216 reporting.
  Task      255 on host nid005216 reporting.
  Task      256 on host nid005216 reporting.
  Task      257 on host nid005216 reporting.
  Task      258 on host nid005216 reporting.
  Task      259 on host nid005216 reporting.
  Task      260 on host nid005216 reporting.
  Task      261 on host nid005216 reporting.
  Task      262 on host nid005216 reporting.
  Task      263 on host nid005216 reporting.
  Task      264 on host nid005216 reporting.
  Task      265 on host nid005216 reporting.
  Task      266 on host nid005216 reporting.
  Task      267 on host nid005216 reporting.
  Task      268 on host nid005216 reporting.
  Task      269 on host nid005216 reporting.
  Task      270 on host nid005216 reporting.
  Task      271 on host nid005216 reporting.
  Task      272 on host nid005216 reporting.
  Task      273 on host nid005216 reporting.
  Task      274 on host nid005216 reporting.
  Task      275 on host nid005216 reporting.
  Task      276 on host nid005216 reporting.
  Task      277 on host nid005216 reporting.
  Task      278 on host nid005216 reporting.
  Task      279 on host nid005216 reporting.
  Task      280 on host nid005216 reporting.
  Task      281 on host nid005216 reporting.
  Task      282 on host nid005216 reporting.
  Task      283 on host nid005216 reporting.
  Task      284 on host nid005216 reporting.
  Task      285 on host nid005216 reporting.
  Task      286 on host nid005216 reporting.
  Task      287 on host nid005216 reporting.
  Task      288 on host nid005220 reporting.
  Task      289 on host nid005220 reporting.
  Task      290 on host nid005220 reporting.
  Task      291 on host nid005220 reporting.
  Task      292 on host nid005220 reporting.
  Task      293 on host nid005220 reporting.
  Task      294 on host nid005220 reporting.
  Task      295 on host nid005220 reporting.
  Task      296 on host nid005220 reporting.
  Task      297 on host nid005220 reporting.
  Task      298 on host nid005220 reporting.
  Task      299 on host nid005220 reporting.
  Task      300 on host nid005220 reporting.
  Task      301 on host nid005220 reporting.
  Task      302 on host nid005220 reporting.
  Task      303 on host nid005220 reporting.
  Task      304 on host nid005220 reporting.
  Task      305 on host nid005220 reporting.
  Task      306 on host nid005220 reporting.
  Task      307 on host nid005220 reporting.
  Task      308 on host nid005220 reporting.
  Task      309 on host nid005220 reporting.
  Task      310 on host nid005220 reporting.
  Task      311 on host nid005220 reporting.
  Task      312 on host nid005220 reporting.
  Task      313 on host nid005220 reporting.
  Task      314 on host nid005220 reporting.
  Task      315 on host nid005220 reporting.
  Task      316 on host nid005220 reporting.
  Task      317 on host nid005220 reporting.
  Task      318 on host nid005220 reporting.
  Task      319 on host nid005220 reporting.
  Task      320 on host nid005220 reporting.
  Task      321 on host nid005220 reporting.
  Task      322 on host nid005220 reporting.
  Task      323 on host nid005220 reporting.
  Task      324 on host nid005380 reporting.
  Task      325 on host nid005380 reporting.
  Task      326 on host nid005380 reporting.
  Task      327 on host nid005380 reporting.
  Task      328 on host nid005380 reporting.
  Task      329 on host nid005380 reporting.
  Task      330 on host nid005380 reporting.
  Task      331 on host nid005380 reporting.
  Task      332 on host nid005380 reporting.
  Task      333 on host nid005380 reporting.
  Task      334 on host nid005380 reporting.
  Task      335 on host nid005380 reporting.
  Task      336 on host nid005380 reporting.
  Task      337 on host nid005380 reporting.
  Task      338 on host nid005380 reporting.
  Task      339 on host nid005380 reporting.
  Task      340 on host nid005380 reporting.
  Task      341 on host nid005380 reporting.
  Task      342 on host nid005380 reporting.
  Task      343 on host nid005380 reporting.
  Task      344 on host nid005380 reporting.
  Task      345 on host nid005380 reporting.
  Task      346 on host nid005380 reporting.
  Task      347 on host nid005380 reporting.
  Task      348 on host nid005380 reporting.
  Task      349 on host nid005380 reporting.
  Task      350 on host nid005380 reporting.
  Task      351 on host nid005380 reporting.
  Task      352 on host nid005380 reporting.
  Task      353 on host nid005380 reporting.
  Task      354 on host nid005380 reporting.
  Task      355 on host nid005380 reporting.
  Task      356 on host nid005380 reporting.
  Task      357 on host nid005380 reporting.
  Task      358 on host nid005380 reporting.
  Task      359 on host nid005380 reporting.
  Task      360 on host nid005429 reporting.
  Task      361 on host nid005429 reporting.
  Task      362 on host nid005429 reporting.
  Task      363 on host nid005429 reporting.
  Task      364 on host nid005429 reporting.
  Task      365 on host nid005429 reporting.
  Task      366 on host nid005429 reporting.
  Task      367 on host nid005429 reporting.
  Task      368 on host nid005429 reporting.
  Task      369 on host nid005429 reporting.
  Task      370 on host nid005429 reporting.
  Task      371 on host nid005429 reporting.
  Task      372 on host nid005429 reporting.
  Task      373 on host nid005429 reporting.
  Task      374 on host nid005429 reporting.
  Task      375 on host nid005429 reporting.
  Task      376 on host nid005429 reporting.
  Task      377 on host nid005429 reporting.
  Task      378 on host nid005429 reporting.
  Task      379 on host nid005429 reporting.
  Task      380 on host nid005429 reporting.
  Task      381 on host nid005429 reporting.
  Task      382 on host nid005429 reporting.
  Task      383 on host nid005429 reporting.
  Task      384 on host nid005429 reporting.
  Task      385 on host nid005429 reporting.
  Task      386 on host nid005429 reporting.
  Task      387 on host nid005429 reporting.
  Task      388 on host nid005429 reporting.
  Task      389 on host nid005429 reporting.
  Task      390 on host nid005429 reporting.
  Task      391 on host nid005429 reporting.
  Task      392 on host nid005429 reporting.
  Task      393 on host nid005429 reporting.
  Task      394 on host nid005429 reporting.
  Task      395 on host nid005429 reporting.
  Task      396 on host nid005430 reporting.
  Task      397 on host nid005430 reporting.
  Task      398 on host nid005430 reporting.
  Task      399 on host nid005430 reporting.
  Task      400 on host nid005430 reporting.
  Task      401 on host nid005430 reporting.
  Task      402 on host nid005430 reporting.
  Task      403 on host nid005430 reporting.
  Task      404 on host nid005430 reporting.
  Task      405 on host nid005430 reporting.
  Task      406 on host nid005430 reporting.
  Task      407 on host nid005430 reporting.
  Task      408 on host nid005430 reporting.
  Task      409 on host nid005430 reporting.
  Task      410 on host nid005430 reporting.
  Task      411 on host nid005430 reporting.
  Task      412 on host nid005430 reporting.
  Task      413 on host nid005430 reporting.
  Task      414 on host nid005430 reporting.
  Task      415 on host nid005430 reporting.
  Task      416 on host nid005430 reporting.
  Task      417 on host nid005430 reporting.
  Task      418 on host nid005430 reporting.
  Task      419 on host nid005430 reporting.
  Task      420 on host nid005430 reporting.
  Task      421 on host nid005430 reporting.
  Task      422 on host nid005430 reporting.
  Task      423 on host nid005430 reporting.
  Task      424 on host nid005430 reporting.
  Task      425 on host nid005430 reporting.
  Task      426 on host nid005430 reporting.
  Task      427 on host nid005430 reporting.
  Task      428 on host nid005430 reporting.
  Task      429 on host nid005430 reporting.
  Task      430 on host nid005430 reporting.
  Task      431 on host nid005430 reporting.
  Task      432 on host nid005431 reporting.
  Task      433 on host nid005431 reporting.
  Task      434 on host nid005431 reporting.
  Task      435 on host nid005431 reporting.
  Task      436 on host nid005431 reporting.
  Task      437 on host nid005431 reporting.
  Task      438 on host nid005431 reporting.
  Task      439 on host nid005431 reporting.
  Task      440 on host nid005431 reporting.
  Task      441 on host nid005431 reporting.
  Task      442 on host nid005431 reporting.
  Task      443 on host nid005431 reporting.
  Task      444 on host nid005431 reporting.
  Task      445 on host nid005431 reporting.
  Task      446 on host nid005431 reporting.
  Task      447 on host nid005431 reporting.
  Task      448 on host nid005431 reporting.
  Task      449 on host nid005431 reporting.
  Task      450 on host nid005431 reporting.
  Task      451 on host nid005431 reporting.
  Task      452 on host nid005431 reporting.
  Task      453 on host nid005431 reporting.
  Task      454 on host nid005431 reporting.
  Task      455 on host nid005431 reporting.
  Task      456 on host nid005431 reporting.
  Task      457 on host nid005431 reporting.
  Task      458 on host nid005431 reporting.
  Task      459 on host nid005431 reporting.
  Task      460 on host nid005431 reporting.
  Task      461 on host nid005431 reporting.
  Task      462 on host nid005431 reporting.
  Task      463 on host nid005431 reporting.
  Task      464 on host nid005431 reporting.
  Task      465 on host nid005431 reporting.
  Task      466 on host nid005431 reporting.
  Task      467 on host nid005431 reporting.
  Task      468 on host nid005461 reporting.
  Task      469 on host nid005461 reporting.
  Task      470 on host nid005461 reporting.
  Task      471 on host nid005461 reporting.
  Task      472 on host nid005461 reporting.
  Task      473 on host nid005461 reporting.
  Task      474 on host nid005461 reporting.
  Task      475 on host nid005461 reporting.
  Task      476 on host nid005461 reporting.
  Task      477 on host nid005461 reporting.
  Task      478 on host nid005461 reporting.
  Task      479 on host nid005461 reporting.
  Task      480 on host nid005461 reporting.
  Task      481 on host nid005461 reporting.
  Task      482 on host nid005461 reporting.
  Task      483 on host nid005461 reporting.
  Task      484 on host nid005461 reporting.
  Task      485 on host nid005461 reporting.
  Task      486 on host nid005461 reporting.
  Task      487 on host nid005461 reporting.
  Task      488 on host nid005461 reporting.
  Task      489 on host nid005461 reporting.
  Task      490 on host nid005461 reporting.
  Task      491 on host nid005461 reporting.
  Task      492 on host nid005461 reporting.
  Task      493 on host nid005461 reporting.
  Task      494 on host nid005461 reporting.
  Task      495 on host nid005461 reporting.
  Task      496 on host nid005461 reporting.
  Task      497 on host nid005461 reporting.
  Task      498 on host nid005461 reporting.
  Task      499 on host nid005461 reporting.
  Task      500 on host nid005461 reporting.
  Task      501 on host nid005461 reporting.
  Task      502 on host nid005461 reporting.
  Task      503 on host nid005461 reporting.
  Task      504 on host nid005468 reporting.
  Task      505 on host nid005468 reporting.
  Task      506 on host nid005468 reporting.
  Task      507 on host nid005468 reporting.
  Task      508 on host nid005468 reporting.
  Task      509 on host nid005468 reporting.
  Task      510 on host nid005468 reporting.
  Task      511 on host nid005468 reporting.
  Task      512 on host nid005468 reporting.
  Task      513 on host nid005468 reporting.
  Task      514 on host nid005468 reporting.
  Task      515 on host nid005468 reporting.
  Task      516 on host nid005468 reporting.
  Task      517 on host nid005468 reporting.
  Task      518 on host nid005468 reporting.
  Task      519 on host nid005468 reporting.
  Task      520 on host nid005468 reporting.
  Task      521 on host nid005468 reporting.
  Task      522 on host nid005468 reporting.
  Task      523 on host nid005468 reporting.
  Task      524 on host nid005468 reporting.
  Task      525 on host nid005468 reporting.
  Task      526 on host nid005468 reporting.
  Task      527 on host nid005468 reporting.
  Task      528 on host nid005468 reporting.
  Task      529 on host nid005468 reporting.
  Task      530 on host nid005468 reporting.
  Task      531 on host nid005468 reporting.
  Task      532 on host nid005468 reporting.
  Task      533 on host nid005468 reporting.
  Task      534 on host nid005468 reporting.
  Task      535 on host nid005468 reporting.
  Task      536 on host nid005468 reporting.
  Task      537 on host nid005468 reporting.
  Task      538 on host nid005468 reporting.
  Task      539 on host nid005468 reporting.
  Task      540 on host nid006306 reporting.
  Task      541 on host nid006306 reporting.
  Task      542 on host nid006306 reporting.
  Task      543 on host nid006306 reporting.
  Task      544 on host nid006306 reporting.
  Task      545 on host nid006306 reporting.
  Task      546 on host nid006306 reporting.
  Task      547 on host nid006306 reporting.
  Task      548 on host nid006306 reporting.
  Task      549 on host nid006306 reporting.
  Task      550 on host nid006306 reporting.
  Task      551 on host nid006306 reporting.
  Task      552 on host nid006306 reporting.
  Task      553 on host nid006306 reporting.
  Task      554 on host nid006306 reporting.
  Task      555 on host nid006306 reporting.
  Task      556 on host nid006306 reporting.
  Task      557 on host nid006306 reporting.
  Task      558 on host nid006306 reporting.
  Task      559 on host nid006306 reporting.
  Task      560 on host nid006306 reporting.
  Task      561 on host nid006306 reporting.
  Task      562 on host nid006306 reporting.
  Task      563 on host nid006306 reporting.
  Task      564 on host nid006306 reporting.
  Task      565 on host nid006306 reporting.
  Task      566 on host nid006306 reporting.
  Task      567 on host nid006306 reporting.
  Task      568 on host nid006306 reporting.
  Task      569 on host nid006306 reporting.
  Task      570 on host nid006306 reporting.
  Task      571 on host nid006306 reporting.
  Task      572 on host nid006306 reporting.
  Task      573 on host nid006306 reporting.
  Task      574 on host nid006306 reporting.
  Task      575 on host nid006306 reporting.
  Task      576 on host nid006307 reporting.
  Task      577 on host nid006307 reporting.
  Task      578 on host nid006307 reporting.
  Task      579 on host nid006307 reporting.
  Task      580 on host nid006307 reporting.
  Task      581 on host nid006307 reporting.
  Task      582 on host nid006307 reporting.
  Task      583 on host nid006307 reporting.
  Task      584 on host nid006307 reporting.
  Task      585 on host nid006307 reporting.
  Task      586 on host nid006307 reporting.
  Task      587 on host nid006307 reporting.
  Task      588 on host nid006307 reporting.
  Task      589 on host nid006307 reporting.
  Task      590 on host nid006307 reporting.
  Task      591 on host nid006307 reporting.
  Task      592 on host nid006307 reporting.
  Task      593 on host nid006307 reporting.
  Task      594 on host nid006307 reporting.
  Task      595 on host nid006307 reporting.
  Task      596 on host nid006307 reporting.
  Task      597 on host nid006307 reporting.
  Task      598 on host nid006307 reporting.
  Task      599 on host nid006307 reporting.
  Task      600 on host nid006307 reporting.
  Task      601 on host nid006307 reporting.
  Task      602 on host nid006307 reporting.
  Task      603 on host nid006307 reporting.
  Task      604 on host nid006307 reporting.
  Task      605 on host nid006307 reporting.
  Task      606 on host nid006307 reporting.
  Task      607 on host nid006307 reporting.
  Task      608 on host nid006307 reporting.
  Task      609 on host nid006307 reporting.
  Task      610 on host nid006307 reporting.
  Task      611 on host nid006307 reporting.
  Task      612 on host nid006310 reporting.
  Task      613 on host nid006310 reporting.
  Task      614 on host nid006310 reporting.
  Task      615 on host nid006310 reporting.
  Task      616 on host nid006310 reporting.
  Task      617 on host nid006310 reporting.
  Task      618 on host nid006310 reporting.
  Task      619 on host nid006310 reporting.
  Task      620 on host nid006310 reporting.
  Task      621 on host nid006310 reporting.
  Task      622 on host nid006310 reporting.
  Task      623 on host nid006310 reporting.
  Task      624 on host nid006310 reporting.
  Task      625 on host nid006310 reporting.
  Task      626 on host nid006310 reporting.
  Task      627 on host nid006310 reporting.
  Task      628 on host nid006310 reporting.
  Task      629 on host nid006310 reporting.
  Task      630 on host nid006310 reporting.
  Task      631 on host nid006310 reporting.
  Task      632 on host nid006310 reporting.
  Task      633 on host nid006310 reporting.
  Task      634 on host nid006310 reporting.
  Task      635 on host nid006310 reporting.
  Task      636 on host nid006310 reporting.
  Task      637 on host nid006310 reporting.
  Task      638 on host nid006310 reporting.
  Task      639 on host nid006310 reporting.
  Task      640 on host nid006310 reporting.
  Task      641 on host nid006310 reporting.
  Task      642 on host nid006310 reporting.
  Task      643 on host nid006310 reporting.
  Task      644 on host nid006310 reporting.
  Task      645 on host nid006310 reporting.
  Task      646 on host nid006310 reporting.
  Task      647 on host nid006310 reporting.
  Task      648 on host nid006311 reporting.
  Task      649 on host nid006311 reporting.
  Task      650 on host nid006311 reporting.
  Task      651 on host nid006311 reporting.
  Task      652 on host nid006311 reporting.
  Task      653 on host nid006311 reporting.
  Task      654 on host nid006311 reporting.
  Task      655 on host nid006311 reporting.
  Task      656 on host nid006311 reporting.
  Task      657 on host nid006311 reporting.
  Task      658 on host nid006311 reporting.
  Task      659 on host nid006311 reporting.
  Task      660 on host nid006311 reporting.
  Task      661 on host nid006311 reporting.
  Task      662 on host nid006311 reporting.
  Task      663 on host nid006311 reporting.
  Task      664 on host nid006311 reporting.
  Task      665 on host nid006311 reporting.
  Task      666 on host nid006311 reporting.
  Task      667 on host nid006311 reporting.
  Task      668 on host nid006311 reporting.
  Task      669 on host nid006311 reporting.
  Task      670 on host nid006311 reporting.
  Task      671 on host nid006311 reporting.
  Task      672 on host nid006311 reporting.
  Task      673 on host nid006311 reporting.
  Task      674 on host nid006311 reporting.
  Task      675 on host nid006311 reporting.
  Task      676 on host nid006311 reporting.
  Task      677 on host nid006311 reporting.
  Task      678 on host nid006311 reporting.
  Task      679 on host nid006311 reporting.
  Task      680 on host nid006311 reporting.
  Task      681 on host nid006311 reporting.
  Task      682 on host nid006311 reporting.
  Task      683 on host nid006311 reporting.
  Task      684 on host nid006312 reporting.
  Task      685 on host nid006312 reporting.
  Task      686 on host nid006312 reporting.
  Task      687 on host nid006312 reporting.
  Task      688 on host nid006312 reporting.
  Task      689 on host nid006312 reporting.
  Task      690 on host nid006312 reporting.
  Task      691 on host nid006312 reporting.
  Task      692 on host nid006312 reporting.
  Task      693 on host nid006312 reporting.
  Task      694 on host nid006312 reporting.
  Task      695 on host nid006312 reporting.
  Task      696 on host nid006312 reporting.
  Task      697 on host nid006312 reporting.
  Task      698 on host nid006312 reporting.
  Task      699 on host nid006312 reporting.
  Task      700 on host nid006312 reporting.
  Task      701 on host nid006312 reporting.
  Task      702 on host nid006312 reporting.
  Task      703 on host nid006312 reporting.
  Task      704 on host nid006312 reporting.
  Task      705 on host nid006312 reporting.
  Task      706 on host nid006312 reporting.
  Task      707 on host nid006312 reporting.
  Task      708 on host nid006312 reporting.
  Task      709 on host nid006312 reporting.
  Task      710 on host nid006312 reporting.
  Task      711 on host nid006312 reporting.
  Task      712 on host nid006312 reporting.
  Task      713 on host nid006312 reporting.
  Task      714 on host nid006312 reporting.
  Task      715 on host nid006312 reporting.
  Task      716 on host nid006312 reporting.
  Task      717 on host nid006312 reporting.
  Task      718 on host nid006312 reporting.
  Task      719 on host nid006312 reporting.
  Task      720 on host nid006313 reporting.
  Task      721 on host nid006313 reporting.
  Task      722 on host nid006313 reporting.
  Task      723 on host nid006313 reporting.
  Task      724 on host nid006313 reporting.
  Task      725 on host nid006313 reporting.
  Task      726 on host nid006313 reporting.
  Task      727 on host nid006313 reporting.
  Task      728 on host nid006313 reporting.
  Task      729 on host nid006313 reporting.
  Task      730 on host nid006313 reporting.
  Task      731 on host nid006313 reporting.
  Task      732 on host nid006313 reporting.
  Task      733 on host nid006313 reporting.
  Task      734 on host nid006313 reporting.
  Task      735 on host nid006313 reporting.
  Task      736 on host nid006313 reporting.
  Task      737 on host nid006313 reporting.
  Task      738 on host nid006313 reporting.
  Task      739 on host nid006313 reporting.
  Task      740 on host nid006313 reporting.
  Task      741 on host nid006313 reporting.
  Task      742 on host nid006313 reporting.
  Task      743 on host nid006313 reporting.
  Task      744 on host nid006313 reporting.
  Task      745 on host nid006313 reporting.
  Task      746 on host nid006313 reporting.
  Task      747 on host nid006313 reporting.
  Task      748 on host nid006313 reporting.
  Task      749 on host nid006313 reporting.
  Task      750 on host nid006313 reporting.
  Task      751 on host nid006313 reporting.
  Task      752 on host nid006313 reporting.
  Task      753 on host nid006313 reporting.
  Task      754 on host nid006313 reporting.
  Task      755 on host nid006313 reporting.
  Task      756 on host nid006314 reporting.
  Task      757 on host nid006314 reporting.
  Task      758 on host nid006314 reporting.
  Task      759 on host nid006314 reporting.
  Task      760 on host nid006314 reporting.
  Task      761 on host nid006314 reporting.
  Task      762 on host nid006314 reporting.
  Task      763 on host nid006314 reporting.
  Task      764 on host nid006314 reporting.
  Task      765 on host nid006314 reporting.
  Task      766 on host nid006314 reporting.
  Task      767 on host nid006314 reporting.
  Task      768 on host nid006314 reporting.
  Task      769 on host nid006314 reporting.
  Task      770 on host nid006314 reporting.
  Task      771 on host nid006314 reporting.
  Task      772 on host nid006314 reporting.
  Task      773 on host nid006314 reporting.
  Task      774 on host nid006314 reporting.
  Task      775 on host nid006314 reporting.
  Task      776 on host nid006314 reporting.
  Task      777 on host nid006314 reporting.
  Task      778 on host nid006314 reporting.
  Task      779 on host nid006314 reporting.
  Task      780 on host nid006314 reporting.
  Task      781 on host nid006314 reporting.
  Task      782 on host nid006314 reporting.
  Task      783 on host nid006314 reporting.
  Task      784 on host nid006314 reporting.
  Task      785 on host nid006314 reporting.
  Task      786 on host nid006314 reporting.
  Task      787 on host nid006314 reporting.
  Task      788 on host nid006314 reporting.
  Task      789 on host nid006314 reporting.
  Task      790 on host nid006314 reporting.
  Task      791 on host nid006314 reporting.
  Task      792 on host nid006317 reporting.
  Task      793 on host nid006317 reporting.
  Task      794 on host nid006317 reporting.
  Task      795 on host nid006317 reporting.
  Task      796 on host nid006317 reporting.
  Task      797 on host nid006317 reporting.
  Task      798 on host nid006317 reporting.
  Task      799 on host nid006317 reporting.
  Task      800 on host nid006317 reporting.
  Task      801 on host nid006317 reporting.
  Task      802 on host nid006317 reporting.
  Task      803 on host nid006317 reporting.
  Task      804 on host nid006317 reporting.
  Task      805 on host nid006317 reporting.
  Task      806 on host nid006317 reporting.
  Task      807 on host nid006317 reporting.
  Task      808 on host nid006317 reporting.
  Task      809 on host nid006317 reporting.
  Task      810 on host nid006317 reporting.
  Task      811 on host nid006317 reporting.
  Task      812 on host nid006317 reporting.
  Task      813 on host nid006317 reporting.
  Task      814 on host nid006317 reporting.
  Task      815 on host nid006317 reporting.
  Task      816 on host nid006317 reporting.
  Task      817 on host nid006317 reporting.
  Task      818 on host nid006317 reporting.
  Task      819 on host nid006317 reporting.
  Task      820 on host nid006317 reporting.
  Task      821 on host nid006317 reporting.
  Task      822 on host nid006317 reporting.
  Task      823 on host nid006317 reporting.
  Task      824 on host nid006317 reporting.
  Task      825 on host nid006317 reporting.
  Task      826 on host nid006317 reporting.
  Task      827 on host nid006317 reporting.
  Task      828 on host nid006318 reporting.
  Task      829 on host nid006318 reporting.
  Task      830 on host nid006318 reporting.
  Task      831 on host nid006318 reporting.
  Task      832 on host nid006318 reporting.
  Task      833 on host nid006318 reporting.
  Task      834 on host nid006318 reporting.
  Task      835 on host nid006318 reporting.
  Task      836 on host nid006318 reporting.
  Task      837 on host nid006318 reporting.
  Task      838 on host nid006318 reporting.
  Task      839 on host nid006318 reporting.
  Task      840 on host nid006318 reporting.
  Task      841 on host nid006318 reporting.
  Task      842 on host nid006318 reporting.
  Task      843 on host nid006318 reporting.
  Task      844 on host nid006318 reporting.
  Task      845 on host nid006318 reporting.
  Task      846 on host nid006318 reporting.
  Task      847 on host nid006318 reporting.
  Task      848 on host nid006318 reporting.
  Task      849 on host nid006318 reporting.
  Task      850 on host nid006318 reporting.
  Task      851 on host nid006318 reporting.
  Task      852 on host nid006318 reporting.
  Task      853 on host nid006318 reporting.
  Task      854 on host nid006318 reporting.
  Task      855 on host nid006318 reporting.
  Task      856 on host nid006318 reporting.
  Task      857 on host nid006318 reporting.
  Task      858 on host nid006318 reporting.
  Task      859 on host nid006318 reporting.
  Task      860 on host nid006318 reporting.
  Task      861 on host nid006318 reporting.
  Task      862 on host nid006318 reporting.
  Task      863 on host nid006318 reporting.
  Task      864 on host nid006319 reporting.
  Task      865 on host nid006319 reporting.
  Task      866 on host nid006319 reporting.
  Task      867 on host nid006319 reporting.
  Task      868 on host nid006319 reporting.
  Task      869 on host nid006319 reporting.
  Task      870 on host nid006319 reporting.
  Task      871 on host nid006319 reporting.
  Task      872 on host nid006319 reporting.
  Task      873 on host nid006319 reporting.
  Task      874 on host nid006319 reporting.
  Task      875 on host nid006319 reporting.
  Task      876 on host nid006319 reporting.
  Task      877 on host nid006319 reporting.
  Task      878 on host nid006319 reporting.
  Task      879 on host nid006319 reporting.
  Task      880 on host nid006319 reporting.
  Task      881 on host nid006319 reporting.
  Task      882 on host nid006319 reporting.
  Task      883 on host nid006319 reporting.
  Task      884 on host nid006319 reporting.
  Task      885 on host nid006319 reporting.
  Task      886 on host nid006319 reporting.
  Task      887 on host nid006319 reporting.
  Task      888 on host nid006319 reporting.
  Task      889 on host nid006319 reporting.
  Task      890 on host nid006319 reporting.
  Task      891 on host nid006319 reporting.
  Task      892 on host nid006319 reporting.
  Task      893 on host nid006319 reporting.
  Task      894 on host nid006319 reporting.
  Task      895 on host nid006319 reporting.
  Task      896 on host nid006319 reporting.
  Task      897 on host nid006319 reporting.
  Task      898 on host nid006319 reporting.
  Task      899 on host nid006319 reporting.
  Task      900 on host nid006668 reporting.
  Task      901 on host nid006668 reporting.
  Task      902 on host nid006668 reporting.
  Task      903 on host nid006668 reporting.
  Task      904 on host nid006668 reporting.
  Task      905 on host nid006668 reporting.
  Task      906 on host nid006668 reporting.
  Task      907 on host nid006668 reporting.
  Task      908 on host nid006668 reporting.
  Task      909 on host nid006668 reporting.
  Task      910 on host nid006668 reporting.
  Task      911 on host nid006668 reporting.
  Task      912 on host nid006668 reporting.
  Task      913 on host nid006668 reporting.
  Task      914 on host nid006668 reporting.
  Task      915 on host nid006668 reporting.
  Task      916 on host nid006668 reporting.
  Task      917 on host nid006668 reporting.
  Task      918 on host nid006668 reporting.
  Task      919 on host nid006668 reporting.
  Task      920 on host nid006668 reporting.
  Task      921 on host nid006668 reporting.
  Task      922 on host nid006668 reporting.
  Task      923 on host nid006668 reporting.
  Task      924 on host nid006668 reporting.
  Task      925 on host nid006668 reporting.
  Task      926 on host nid006668 reporting.
  Task      927 on host nid006668 reporting.
  Task      928 on host nid006668 reporting.
  Task      929 on host nid006668 reporting.
  Task      930 on host nid006668 reporting.
  Task      931 on host nid006668 reporting.
  Task      932 on host nid006668 reporting.
  Task      933 on host nid006668 reporting.
  Task      934 on host nid006668 reporting.
  Task      935 on host nid006668 reporting.
  Task      936 on host nid006669 reporting.
  Task      937 on host nid006669 reporting.
  Task      938 on host nid006669 reporting.
  Task      939 on host nid006669 reporting.
  Task      940 on host nid006669 reporting.
  Task      941 on host nid006669 reporting.
  Task      942 on host nid006669 reporting.
  Task      943 on host nid006669 reporting.
  Task      944 on host nid006669 reporting.
  Task      945 on host nid006669 reporting.
  Task      946 on host nid006669 reporting.
  Task      947 on host nid006669 reporting.
  Task      948 on host nid006669 reporting.
  Task      949 on host nid006669 reporting.
  Task      950 on host nid006669 reporting.
  Task      951 on host nid006669 reporting.
  Task      952 on host nid006669 reporting.
  Task      953 on host nid006669 reporting.
  Task      954 on host nid006669 reporting.
  Task      955 on host nid006669 reporting.
  Task      956 on host nid006669 reporting.
  Task      957 on host nid006669 reporting.
  Task      958 on host nid006669 reporting.
  Task      959 on host nid006669 reporting.
  Task      960 on host nid006669 reporting.
  Task      961 on host nid006669 reporting.
  Task      962 on host nid006669 reporting.
  Task      963 on host nid006669 reporting.
  Task      964 on host nid006669 reporting.
  Task      965 on host nid006669 reporting.
  Task      966 on host nid006669 reporting.
  Task      967 on host nid006669 reporting.
  Task      968 on host nid006669 reporting.
  Task      969 on host nid006669 reporting.
  Task      970 on host nid006669 reporting.
  Task      971 on host nid006669 reporting.
  Task      972 on host nid006676 reporting.
  Task      973 on host nid006676 reporting.
  Task      974 on host nid006676 reporting.
  Task      975 on host nid006676 reporting.
  Task      976 on host nid006676 reporting.
  Task      977 on host nid006676 reporting.
  Task      978 on host nid006676 reporting.
  Task      979 on host nid006676 reporting.
  Task      980 on host nid006676 reporting.
  Task      981 on host nid006676 reporting.
  Task      982 on host nid006676 reporting.
  Task      983 on host nid006676 reporting.
  Task      984 on host nid006676 reporting.
  Task      985 on host nid006676 reporting.
  Task      986 on host nid006676 reporting.
  Task      987 on host nid006676 reporting.
  Task      988 on host nid006676 reporting.
  Task      989 on host nid006676 reporting.
  Task      990 on host nid006676 reporting.
  Task      991 on host nid006676 reporting.
  Task      992 on host nid006676 reporting.
  Task      993 on host nid006676 reporting.
  Task      994 on host nid006676 reporting.
  Task      995 on host nid006676 reporting.
  Task      996 on host nid006676 reporting.
  Task      997 on host nid006676 reporting.
  Task      998 on host nid006676 reporting.
  Task      999 on host nid006676 reporting.
  Task     1000 on host nid006676 reporting.
  Task     1001 on host nid006676 reporting.
  Task     1002 on host nid006676 reporting.
  Task     1003 on host nid006676 reporting.
  Task     1004 on host nid006676 reporting.
  Task     1005 on host nid006676 reporting.
  Task     1006 on host nid006676 reporting.
  Task     1007 on host nid006676 reporting.
  Task     1008 on host nid006713 reporting.
  Task     1009 on host nid006713 reporting.
  Task     1010 on host nid006713 reporting.
  Task     1011 on host nid006713 reporting.
  Task     1012 on host nid006713 reporting.
  Task     1013 on host nid006713 reporting.
  Task     1014 on host nid006713 reporting.
  Task     1015 on host nid006713 reporting.
  Task     1016 on host nid006713 reporting.
  Task     1017 on host nid006713 reporting.
  Task     1018 on host nid006713 reporting.
  Task     1019 on host nid006713 reporting.
  Task     1020 on host nid006713 reporting.
  Task     1021 on host nid006713 reporting.
  Task     1022 on host nid006713 reporting.
  Task     1023 on host nid006713 reporting.
  Task     1024 on host nid006713 reporting.
  Task     1025 on host nid006713 reporting.
  Task     1026 on host nid006713 reporting.
  Task     1027 on host nid006713 reporting.
  Task     1028 on host nid006713 reporting.
  Task     1029 on host nid006713 reporting.
  Task     1030 on host nid006713 reporting.
  Task     1031 on host nid006713 reporting.
  Task     1032 on host nid006713 reporting.
  Task     1033 on host nid006713 reporting.
  Task     1034 on host nid006713 reporting.
  Task     1035 on host nid006713 reporting.
  Task     1036 on host nid006713 reporting.
  Task     1037 on host nid006713 reporting.
  Task     1038 on host nid006713 reporting.
  Task     1039 on host nid006713 reporting.
  Task     1040 on host nid006713 reporting.
  Task     1041 on host nid006713 reporting.
  Task     1042 on host nid006713 reporting.
  Task     1043 on host nid006713 reporting.
  Task     1044 on host nid006756 reporting.
  Task     1045 on host nid006756 reporting.
  Task     1046 on host nid006756 reporting.
  Task     1047 on host nid006756 reporting.
  Task     1048 on host nid006756 reporting.
  Task     1049 on host nid006756 reporting.
  Task     1050 on host nid006756 reporting.
  Task     1051 on host nid006756 reporting.
  Task     1052 on host nid006756 reporting.
  Task     1053 on host nid006756 reporting.
  Task     1054 on host nid006756 reporting.
  Task     1055 on host nid006756 reporting.
  Task     1056 on host nid006756 reporting.
  Task     1057 on host nid006756 reporting.
  Task     1058 on host nid006756 reporting.
  Task     1059 on host nid006756 reporting.
  Task     1060 on host nid006756 reporting.
  Task     1061 on host nid006756 reporting.
  Task     1062 on host nid006756 reporting.
  Task     1063 on host nid006756 reporting.
  Task     1064 on host nid006756 reporting.
  Task     1065 on host nid006756 reporting.
  Task     1066 on host nid006756 reporting.
  Task     1067 on host nid006756 reporting.
  Task     1068 on host nid006756 reporting.
  Task     1069 on host nid006756 reporting.
  Task     1070 on host nid006756 reporting.
  Task     1071 on host nid006756 reporting.
  Task     1072 on host nid006756 reporting.
  Task     1073 on host nid006756 reporting.
  Task     1074 on host nid006756 reporting.
  Task     1075 on host nid006756 reporting.
  Task     1076 on host nid006756 reporting.
  Task     1077 on host nid006756 reporting.
  Task     1078 on host nid006756 reporting.
  Task     1079 on host nid006756 reporting.
  Task     1080 on host nid006757 reporting.
  Task     1081 on host nid006757 reporting.
  Task     1082 on host nid006757 reporting.
  Task     1083 on host nid006757 reporting.
  Task     1084 on host nid006757 reporting.
  Task     1085 on host nid006757 reporting.
  Task     1086 on host nid006757 reporting.
  Task     1087 on host nid006757 reporting.
  Task     1088 on host nid006757 reporting.
  Task     1089 on host nid006757 reporting.
  Task     1090 on host nid006757 reporting.
  Task     1091 on host nid006757 reporting.
  Task     1092 on host nid006757 reporting.
  Task     1093 on host nid006757 reporting.
  Task     1094 on host nid006757 reporting.
  Task     1095 on host nid006757 reporting.
  Task     1096 on host nid006757 reporting.
  Task     1097 on host nid006757 reporting.
  Task     1098 on host nid006757 reporting.
  Task     1099 on host nid006757 reporting.
  Task     1100 on host nid006757 reporting.
  Task     1101 on host nid006757 reporting.
  Task     1102 on host nid006757 reporting.
  Task     1103 on host nid006757 reporting.
  Task     1104 on host nid006757 reporting.
  Task     1105 on host nid006757 reporting.
  Task     1106 on host nid006757 reporting.
  Task     1107 on host nid006757 reporting.
  Task     1108 on host nid006757 reporting.
  Task     1109 on host nid006757 reporting.
  Task     1110 on host nid006757 reporting.
  Task     1111 on host nid006757 reporting.
  Task     1112 on host nid006757 reporting.
  Task     1113 on host nid006757 reporting.
  Task     1114 on host nid006757 reporting.
  Task     1115 on host nid006757 reporting.
  Task     1116 on host nid006758 reporting.
  Task     1117 on host nid006758 reporting.
  Task     1118 on host nid006758 reporting.
  Task     1119 on host nid006758 reporting.
  Task     1120 on host nid006758 reporting.
  Task     1121 on host nid006758 reporting.
  Task     1122 on host nid006758 reporting.
  Task     1123 on host nid006758 reporting.
  Task     1124 on host nid006758 reporting.
  Task     1125 on host nid006758 reporting.
  Task     1126 on host nid006758 reporting.
  Task     1127 on host nid006758 reporting.
  Task     1128 on host nid006758 reporting.
  Task     1129 on host nid006758 reporting.
  Task     1130 on host nid006758 reporting.
  Task     1131 on host nid006758 reporting.
  Task     1132 on host nid006758 reporting.
  Task     1133 on host nid006758 reporting.
  Task     1134 on host nid006758 reporting.
  Task     1135 on host nid006758 reporting.
  Task     1136 on host nid006758 reporting.
  Task     1137 on host nid006758 reporting.
  Task     1138 on host nid006758 reporting.
  Task     1139 on host nid006758 reporting.
  Task     1140 on host nid006758 reporting.
  Task     1141 on host nid006758 reporting.
  Task     1142 on host nid006758 reporting.
  Task     1143 on host nid006758 reporting.
  Task     1144 on host nid006758 reporting.
  Task     1145 on host nid006758 reporting.
  Task     1146 on host nid006758 reporting.
  Task     1147 on host nid006758 reporting.
  Task     1148 on host nid006758 reporting.
  Task     1149 on host nid006758 reporting.
  Task     1150 on host nid006758 reporting.
  Task     1151 on host nid006758 reporting.

  Performing system and environment tests:
  | Environment variable OMP_NUM_THREADS correctly set to 1.
  | Checking for ScaLAPACK...
  | Testing pdtran()...
  | All pdtran() tests passed.

  Obtaining array dimensions for all initial allocations:
  
  -----------------------------------------------------------------------
  Parsing control.in (first pass over file, find array dimensions only).
  The contents of control.in will be repeated verbatim below
  unless switched off by setting 'verbatim_writeout .false.' .
  in the first line of control.in .
  -----------------------------------------------------------------------
  
  xc               pbesol
  charge           0.
  spin             none
  relativistic atomic_zora scalar
  k_grid                6 6 4
  sc_accuracy_rho       1E-7
  sc_accuracy_forces    1E-6
  
  ################################################################################
  #
  #  FHI-aims code project
  #  Volker Blum, Fritz Haber Institute Berlin, 2009
  #
  #  Suggested "tight" defaults for Ba atom (to be pasted into control.in file)
  #
  #  The onset of the cutoff pot'l WAS set to 8 A by default, because the neutral
  #  Ba atom is a large atom. However, this is very expensive. The radius should be
  #  much smaller in real-world situations, where Ba will be ionic. Please check
  #  and reduce the cutoff radius explicitly.
  #
  #  2015/11/12 : f and g functions from tier2 added to default basis set choice.
  #               These functions make a difference in the "delta test".
  #               Reduced the default cutoff radius to 6AA. The free-atom 6s function
  #               requires more. However, 6AA is already VERY expensive for
  #               any production calculations. In fact, revisit this choice for
  #               ionic systems to see if a smaller cutoff radius will do.
  #
  ################################################################################
    species          Ba
  #     global species definitions
      nucleus        56
      mass           137.327
  #
      l_hartree      6
  #
      cut_pot        6.0  2.0  1.0
      basis_dep_cutoff    1e-4
  #
      radial_base    65  7.0
      radial_multiplier  2
      angular_grids specified
        division   0.6752  110
        division   0.9746  194
        division   1.2241  302
        division   1.3850  434
  #      division   1.4734  590
  #      division   1.6010  770
  #      division   4.8366  974
  #      outer_grid  974
        outer_grid  434
  ################################################################################
  #
  #  Definition of "minimal" basis
  #
  ################################################################################
  #     valence basis states
      valence      6  s   2.
      valence      5  p   6.
      valence      4  d  10.
  #     ion occupancy
      ion_occ      6  s   1.
      ion_occ      5  p   6.
      ion_occ      4  d  10.
  ################################################################################
  #
  #  Suggested additional basis functions. For production calculations,
  #  uncomment them one after another (the most important basis functions are
  #  listed first).
  #
  #  Constructed for dimers: 2.65, 3.00, 3.50, 4.40, 5.50 Ang
  #
  ################################################################################
  #  "First tier" - improvements: -1277.43 meV to -9.16 meV
       ionic 5 d auto
       ionic 4 f auto
       hydro 3 p 2.7
       hydro 4 s 3.3
  #  "Second tier" - improvements: -64.04 (!) meV to -0.25 meV
       hydro 4 f 5.8
       hydro 5 g 7.4
  #     hydro 4 d 4.5
  #     hydro 6 h 11.2
  #     hydro 5 p 6.6
  #     hydro 2 s 3.2
  #  "Third tier" - max. impr. -1.16 meV, min. impr. -0.08 meV
  #     hydro 5 f 7.4
  #     hydro 5 g 10.8
  #     hydro 4 d 2.3
  #     hydro 4 p 3.7
  #     hydro 5 s 4.0
  #  Further functions - impr. -0.35 meV and below
  #     hydro 5 d 3.5
  #     hydro 6 d 0.4
  #     hydro 2 p 2.5
  #     hydro 5 f 12
  #     hydro 6 d 8.8
  ################################################################################
  #
  #  FHI-aims code project
  #  Volker Blum, Fritz Haber Institute Berlin, 2009
  #
  #  Suggested "tight" defaults for Zr atom (to be pasted into control.in file)
  #
  ################################################################################
    species          Zr
  #     global species definitions
      nucleus        40
      mass           91.224
  #
      l_hartree      6
  #
      cut_pot        4.0  2.0  1.0
      basis_dep_cutoff    1e-4
  #
      radial_base    58  7.0
      radial_multiplier  2
      angular_grids specified
        division   0.3653   50
        division   0.8035  110
        division   1.2273  194
        division   1.4586  302
        division   1.6764  434
  #      division   1.9671  590
  #      division   2.1961  770
  #      division   2.3240  974
  #      division   3.4772 1202
  #      outer_grid  974
        outer_grid  434
  ################################################################################
  #
  #  Definition of "minimal" basis
  #
  ################################################################################
  #     valence basis states
      valence      5  s   2.
      valence      4  p   6.
      valence      4  d   2.
  #     ion occupancy
      ion_occ      5  s   1.
      ion_occ      4  p   6.
      ion_occ      4  d   1.
  ################################################################################
  #
  #  Suggested additional basis functions. For production calculations,
  #  uncomment them one after another (the most important basis functions are
  #  listed first).
  #
  #  Constructed for dimers: 1.9, 2.25, 3.00, 4.00 Ang
  #
  ################################################################################
  #  "First tier" - improvements: -605.96 meV to -18.06 meV
       hydro 4 f 7.2
       ionic 4 d auto
       ionic 5 p auto
       hydro 5 g 10.4
       ionic 5 s auto
  #  "Second tier" - improvements: -32.47 meV to -1.41 meV
  #     hydro 4 f 10.4
  #     hydro 6 h 14.8
  #     hydro 4 d 6.2
  #     hydro 4 p 4.4
  #     hydro 4 f 20
  #     hydro 5 s 6
  #  "Third tier" - improvements: -1.99 meV and lower.
  #     hydro 4 f 5.8
  #     hydro 5 g 10.8
  #     hydro 2 p 1
  #     hydro 3 d 8
  #     hydro 6 h 14.4
  #     hydro 1 s 0.9
  #  Further functions (approx -0.40 meV and below possible)
  ################################################################################
  #
  #  FHI-aims code project
  #  Volker Blum, Fritz Haber Institute Berlin, 2009
  #
  #  Suggested "tight" defaults for S atom (to be pasted into control.in file)
  #
  #  Revised Jan 04, 2011, following tests (SiC) done by Lydia Nemec:
  #     d and g functions of tier 2 now enabled by default.
  #
  ################################################################################
    species        S
  #     global species definitions
      nucleus             16
      mass                32.065
  #
      l_hartree           6
  #
      cut_pot             4.0          2.0  1.0
      basis_dep_cutoff    1e-4
  #
      radial_base         44 7.0
      radial_multiplier   2
      angular_grids       specified
        division   0.4665  110
        division   0.5810  194
        division   0.7139  302
        division   0.8274  434
  #      division   0.9105  590
  #      division   1.0975  770
  #      division   1.2028  974
  #      outer_grid  974
        outer_grid  434
  ################################################################################
  #
  #  Definition of "minimal" basis
  #
  ################################################################################
  #     valence basis states
      valence      3  s   2.
      valence      3  p   4.
  #     ion occupancy
      ion_occ      3  s   1.
      ion_occ      3  p   3.
  ################################################################################
  #
  #  Suggested additional basis functions. For production calculations,
  #  uncomment them one after another (the most important basis functions are
  #  listed first).
  #
  #  Constructed for dimers: 1.6 A, 1.9 A, 2.5 A, 3.25 A, 4.0 A
  #
  ################################################################################
  #  "First tier" - improvements: -652.81 meV to -45.53 meV
       ionic 3 d auto
       hydro 2 p 1.8
       hydro 4 f 7
       ionic 3 s auto
  #  "Second tier" - improvements: -30.20 meV to -1.74 meV
       hydro 4 d 6.2
       hydro 5 g 10.8
  #     hydro 4 p 4.9
  #     hydro 5 f 10
  #     hydro 1 s 0.8
  #  "Third tier" - improvements: -1.04 meV to -0.20 meV
  #     hydro 3 d 3.9
  #     hydro 3 d 2.7
  #     hydro 5 g 12
  #     hydro 4 p 10.4
  #     hydro 5 f 12.4
  #     hydro 2 s 1.9
  #  "Fourth tier" - improvements: -0.35 meV to -0.06 meV
  #     hydro 4 d 10.4
  #     hydro 4 p 7.2
  #     hydro 4 d 10
  #     hydro 5 g 19.2
  #     hydro 4 s 12
  
  ################################################################################
  #
  # For methods that use the localized form of the "resolution of identity" for
  # the two-electron Coulomb operator (RI_method LVL), particularly Hartree-Fock and
  # hybrid density functional calculations, the highest accuracy can be obtained by
  # uncommenting the line beginning with "for_aux"  below, thus adding an extra g radial
  # function to the construction of the product basis set for the expansion.
  # See Ref. New J. Phys. 17, 093020 (2015) for more information, particularly Figs. 1 and 6.
  #
  ################################################################################
  #
  # for_aux hydro 5 g 6.0
  
  -----------------------------------------------------------------------
  Completed first pass over input file control.in .
  -----------------------------------------------------------------------
  
  
  -----------------------------------------------------------------------
  Parsing geometry.in (first pass over file, find array dimensions only).
  The contents of geometry.in will be repeated verbatim below
  unless switched off by setting 'verbatim_writeout .false.' .
  in the first line of geometry.in .
  -----------------------------------------------------------------------
  
  # geometry.in for FHI-aims
  # | generated by phonopy.FHIaims.write_aims()
  lattice_vector -4.9621042600000003 4.9621042600000003 35.2495096399999994
  lattice_vector 4.9621042600000003 -4.9621042600000003 35.2495096399999994
  lattice_vector 2.4810521300000001 2.4810521300000001 -17.6247548199999997
  atom -0.0000000000000001 0.0000000000000001 15.2474387086190131 Ba
  atom -2.4810521300000010 2.4810521300000010 32.8721935286190146 Ba
  atom 2.4810521300000001 -2.4810521300000001 32.8721935286190146 Ba
  atom -0.0000000000000002 0.0000000000000002 50.4969483486190143 Ba
  atom -0.0000000000000000 0.0000000000000000 20.0020709313809881 Ba
  atom -2.4810521300000006 2.4810521300000006 37.6268257513809914 Ba
  atom 2.4810521300000006 -2.4810521300000006 37.6268257513809914 Ba
  atom -0.0000000000000002 0.0000000000000002 55.2515805713809911 Ba
  atom -0.0000000000000000 0.0000000000000000 10.5930324741017330 Ba
  atom -2.4810521300000001 2.4810521300000001 28.2177872941017327 Ba
  atom 2.4810521300000001 -2.4810521300000001 28.2177872941017327 Ba
  atom 0.0000000000000001 -0.0000000000000001 45.8425421141017324 Ba
  atom -0.0000000000000003 0.0000000000000003 24.6564771658982700 Ba
  atom -2.4810521299999997 2.4810521299999997 42.2812319858982733 Ba
  atom 2.4810521300000001 -2.4810521300000001 42.2812319858982733 Ba
  atom 0.0000000000000010 -0.0000000000000010 59.9059868058982730 Ba
  atom 0.0000000000000000 2.4810521300000001 0.0000000000000000 S
  atom -2.4810521300000001 4.9621042600000003 17.6247548199999997 S
  atom 2.4810521300000001 0.0000000000000000 17.6247548199999997 S
  atom 0.0000000000000000 2.4810521300000001 35.2495096399999994 S
  atom 0.0000000000000000 2.4810521300000001 17.6247548199999997 S
  atom 2.4810521300000001 0.0000000000000000 0.0000000000000000 S
  atom 2.4810521300000001 0.0000000000000000 35.2495096399999994 S
  atom 4.9621042600000003 -2.4810521300000001 17.6247548199999997 S
  atom 0.0013806156836167 -0.0013806156836167 32.7484623954718899 S
  atom -2.4810521300000001 2.4810521300000001 50.3830247534232925 S
  atom 2.4810521300000001 -2.4810521300000001 50.3830247534232996 S
  atom 0.0000000000000002 -0.0000000000000002 68.0077795734232922 S
  atom 0.0000000000000000 -0.0000000000000000 2.4912397065766978 S
  atom -2.4810521300000001 2.4810521300000001 20.1159945265766993 S
  atom 2.4810521300000001 -2.4810521300000001 20.1159945265766993 S
  atom 0.0000000000000002 -0.0000000000000002 37.7407493465766990 S
  atom 0.0000000000000001 -0.0000000000000001 27.7148638578277442 S
  atom -2.4810521300000001 2.4810521300000001 45.3396186778277439 S
  atom 2.4810521300000006 -2.4810521300000006 45.3396186778277439 S
  atom 0.0000000000000009 -0.0000000000000009 62.9643734978277507 S
  atom 0.0000000000000000 -0.0000000000000000 7.5346457821722552 S
  atom -2.4810521299999997 2.4810521299999997 25.1594006021722514 S
  atom 2.4810521300000001 -2.4810521300000001 25.1594006021722514 S
  atom 0.0000000000000001 -0.0000000000000001 42.7841554221722475 S
  atom -0.0000000000000004 2.4810521300000001 12.7179264944555879 S
  atom -2.4810521300000001 4.9621042600000003 30.3426813144555858 S
  atom 2.4810521300000001 0.0000000000000002 30.3426813144555858 S
  atom -0.0000000000000008 2.4810521300000006 47.9674361344555891 S
  atom 2.4810521300000001 0.0000000000000000 12.7179264944555861 S
  atom -0.0000000000000004 2.4810521300000001 30.3426813144555858 S
  atom 4.9621042600000003 -2.4810521300000001 30.3426813144555858 S
  atom 2.4810521300000001 0.0000000000000002 47.9674361344555820 S
  atom 2.4810521300000001 0.0000000000000000 4.9068283255444136 S
  atom 0.0000000000000005 2.4810521300000001 22.5315831455444062 S
  atom 4.9621042600000003 -2.4810521300000001 22.5315831455444133 S
  atom 2.4810521300000006 -0.0000000000000008 40.1563379655444095 S
  atom 0.0000000000000000 2.4810521300000001 4.9068283255444136 S
  atom -2.4810521300000001 4.9621042600000003 22.5315831455444133 S
  atom 2.4810521300000001 0.0000000000000000 22.5315831455444133 S
  atom 0.0000000000000005 2.4810521300000001 40.1563379655444095 S
  atom 0.0000000000000000 0.0000000000000000 0.0000000000000000 Zr
  atom -2.4810521300000001 2.4810521300000001 17.6247548199999997 Zr
  atom 2.4810521300000001 -2.4810521300000001 17.6247548199999997 Zr
  atom 0.0000000000000000 0.0000000000000000 35.2495096399999994 Zr
  atom 0.0000000000000002 -0.0000000000000002 30.1957870904181007 Zr
  atom -2.4810521300000010 2.4810521300000010 47.8205419104181075 Zr
  atom 2.4810521300000006 -2.4810521300000006 47.8205419104181004 Zr
  atom -0.0000000000000000 0.0000000000000000 65.4452967304181072 Zr
  atom -0.0000000000000000 0.0000000000000000 5.0537225495818960 Zr
  atom -2.4810521300000001 2.4810521300000001 22.6784773695818949 Zr
  atom 2.4810521300000001 -2.4810521300000001 22.6784773695818949 Zr
  atom 0.0000000000000000 -0.0000000000000000 40.3032321895818910 Zr
  
  -----------------------------------------------------------------------
  Completed first pass over input file geometry.in .
  -----------------------------------------------------------------------
  

  Basic array size parameters:
  | Number of species                 :        3
  | Number of atoms                   :       68
  | Number of lattice vectors         :        3
  | Max. basis fn. angular momentum   :        4
  | Max. atomic/ionic basis occupied n:        6
  | Max. number of basis fn. types    :        3
  | Max. radial fns per species/type  :       12
  | Max. logarithmic grid size        :     1460
  | Max. radial integration grid size :      131
  | Max. angular integration grid size:      434
  | Max. angular grid division number :        8
  | Radial grid for Hartree potential :     1460
  | Number of spin channels           :        1

------------------------------------------------------------
          Reading file control.in.
------------------------------------------------------------
  XC: Using PBEsol gradient-corrected functionals.
  Charge =   0.000000E+00: Neutral system requested explicitly.
  Spin treatment: No spin polarisation.
  Scalar relativistic treatment of kinetic energy: on-site free-atom approximation to ZORA.
  Found k-point grid:         6         6         4
  Convergence accuracy of self-consistent charge density:  0.1000E-06
  Convergence accuracy of forces:  0.1000E-05

  Reading configuration options for species Ba                  .
  | Found nuclear charge :  56.0000
  | Found atomic mass :    137.32700000000000      amu
  | Found l_max for Hartree potential  :   6
  | Found cutoff potl. onset [A], width [A], scale factor :    6.00000    2.00000    1.00000
  | Threshold for basis-dependent cutoff potential is   0.100000E-03
  | Found data for basic radial integration grid :    65 points, outermost radius =    7.000 A
  | Found multiplier for basic radial grid :   2
  | Found angular grid specification: user-specified.
  | Specified grid contains     5 separate shells.
  | Check grid settings after all constraints further below.
  | Found free-atom valence shell :  6 s   2.000
  | Found free-atom valence shell :  5 p   6.000
  | Found free-atom valence shell :  4 d  10.000
  | Found free-ion valence shell :  6 s   1.000
  | Found free-ion valence shell :  5 p   6.000
  | Found free-ion valence shell :  4 d  10.000
  | Found ionic basis function :  5 d , default cutoff radius.
  | Found ionic basis function :  4 f , default cutoff radius.
  | Found hydrogenic basis function :  3 p   2.700
  | Found hydrogenic basis function :  4 s   3.300
  | Found hydrogenic basis function :  4 f   5.800
  | Found hydrogenic basis function :  5 g   7.400
  Species Ba                  : Missing cutoff potential type.
  Defaulting to exp(1/x)/(1-x)^2 type cutoff potential.
  Species Ba: No 'logarithmic' tag. Using default grid for free atom:
  | Default logarithmic grid data [bohr] : 0.1000E-03 0.1000E+03 0.1012E+01
  | Will include ionic basis functions of  1.0-fold positive Ba                   ion.
  Species Ba: On-site basis accuracy parameter (for Gram-Schmidt orthonormalisation) not specified.
  Using default value basis_acc =  0.1000000E-03.
  Species Ba                  : Using default innermost maximum threshold i_radial=  2 for radial functions.
  Species Ba                  : Default cutoff onset for free atom density etc. : 0.60000000E+01 AA.
  Species Ba                  : Basic radial grid will be enhanced according to radial_multiplier =   2, to contain   131 grid points.

  Reading configuration options for species Zr                  .
  | Found nuclear charge :  40.0000
  | Found atomic mass :    91.224000000000004      amu
  | Found l_max for Hartree potential  :   6
  | Found cutoff potl. onset [A], width [A], scale factor :    4.00000    2.00000    1.00000
  | Threshold for basis-dependent cutoff potential is   0.100000E-03
  | Found data for basic radial integration grid :    58 points, outermost radius =    7.000 A
  | Found multiplier for basic radial grid :   2
  | Found angular grid specification: user-specified.
  | Specified grid contains     6 separate shells.
  | Check grid settings after all constraints further below.
  | Found free-atom valence shell :  5 s   2.000
  | Found free-atom valence shell :  4 p   6.000
  | Found free-atom valence shell :  4 d   2.000
  | Found free-ion valence shell :  5 s   1.000
  | Found free-ion valence shell :  4 p   6.000
  | Found free-ion valence shell :  4 d   1.000
  | Found hydrogenic basis function :  4 f   7.200
  | Found ionic basis function :  4 d , default cutoff radius.
  | Found ionic basis function :  5 p , default cutoff radius.
  | Found hydrogenic basis function :  5 g  10.400
  | Found ionic basis function :  5 s , default cutoff radius.
  Species Zr                  : Missing cutoff potential type.
  Defaulting to exp(1/x)/(1-x)^2 type cutoff potential.
  Species Zr: No 'logarithmic' tag. Using default grid for free atom:
  | Default logarithmic grid data [bohr] : 0.1000E-03 0.1000E+03 0.1012E+01
  | Will include ionic basis functions of  2.0-fold positive Zr                   ion.
  Species Zr: On-site basis accuracy parameter (for Gram-Schmidt orthonormalisation) not specified.
  Using default value basis_acc =  0.1000000E-03.
  Species Zr                  : Using default innermost maximum threshold i_radial=  2 for radial functions.
  Species Zr                  : Default cutoff onset for free atom density etc. : 0.40000000E+01 AA.
  Species Zr                  : Basic radial grid will be enhanced according to radial_multiplier =   2, to contain   117 grid points.

  Reading configuration options for species S                   .
  | Found nuclear charge :  16.0000
  | Found atomic mass :    32.064999999999998      amu
  | Found l_max for Hartree potential  :   6
  | Found cutoff potl. onset [A], width [A], scale factor :    4.00000    2.00000    1.00000
  | Threshold for basis-dependent cutoff potential is   0.100000E-03
  | Found data for basic radial integration grid :    44 points, outermost radius =    7.000 A
  | Found multiplier for basic radial grid :   2
  | Found angular grid specification: user-specified.
  | Specified grid contains     5 separate shells.
  | Check grid settings after all constraints further below.
  | Found free-atom valence shell :  3 s   2.000
  | Found free-atom valence shell :  3 p   4.000
  | Found free-ion valence shell :  3 s   1.000
  | Found free-ion valence shell :  3 p   3.000
  | Found ionic basis function :  3 d , default cutoff radius.
  | Found hydrogenic basis function :  2 p   1.800
  | Found hydrogenic basis function :  4 f   7.000
  | Found ionic basis function :  3 s , default cutoff radius.
  | Found hydrogenic basis function :  4 d   6.200
  | Found hydrogenic basis function :  5 g  10.800
  Species S                   : Missing cutoff potential type.
  Defaulting to exp(1/x)/(1-x)^2 type cutoff potential.
  Species S : No 'logarithmic' tag. Using default grid for free atom:
  | Default logarithmic grid data [bohr] : 0.1000E-03 0.1000E+03 0.1012E+01
  | Will include ionic basis functions of  2.0-fold positive S                    ion.
  Species S : On-site basis accuracy parameter (for Gram-Schmidt orthonormalisation) not specified.
  Using default value basis_acc =  0.1000000E-03.
  Species S                   : Using default innermost maximum threshold i_radial=  2 for radial functions.
  Species S                   : Default cutoff onset for free atom density etc. : 0.40000000E+01 AA.
  Species S                   : Basic radial grid will be enhanced according to radial_multiplier =   2, to contain    89 grid points.

  Finished reading input file 'control.in'.

------------------------------------------------------------


------------------------------------------------------------
          Reading geometry description geometry.in.
------------------------------------------------------------
  | The smallest distance between any two atoms is         2.48092323 AA.
  | The first atom of this pair is atom number                     36 .
  | The second atom of this pair is atom number                    64 .
  | Wigner-Seitz cell of the first atom image           0     0     0 .
  | (The Wigner-Seitz cell of the second atom is 0 0 0  by definition.)

  Symmetry information by spglib:
  | Precision set to  0.1E-04
  | Number of Operations  : 1
  | Space group           : 1
  | International         : P1
  | Schoenflies           : C1^1
  Input structure read successfully.
  The structure contains       68 atoms,  and a total of       2016.000 electrons.

  Input geometry:
  | Unit cell:
  |       -4.96210426        4.96210426       35.24950964
  |        4.96210426       -4.96210426       35.24950964
  |        2.48105213        2.48105213      -17.62475482
  | Atomic structure:
  |       Atom                x [A]            y [A]            z [A]
  |    1: Species Ba           -0.00000000        0.00000000       15.24743871
  |    2: Species Ba           -2.48105213        2.48105213       32.87219353
  |    3: Species Ba            2.48105213       -2.48105213       32.87219353
  |    4: Species Ba           -0.00000000        0.00000000       50.49694835
  |    5: Species Ba           -0.00000000        0.00000000       20.00207093
  |    6: Species Ba           -2.48105213        2.48105213       37.62682575
  |    7: Species Ba            2.48105213       -2.48105213       37.62682575
  |    8: Species Ba           -0.00000000        0.00000000       55.25158057
  |    9: Species Ba           -0.00000000        0.00000000       10.59303247
  |   10: Species Ba           -2.48105213        2.48105213       28.21778729
  |   11: Species Ba            2.48105213       -2.48105213       28.21778729
  |   12: Species Ba            0.00000000       -0.00000000       45.84254211
  |   13: Species Ba           -0.00000000        0.00000000       24.65647717
  |   14: Species Ba           -2.48105213        2.48105213       42.28123199
  |   15: Species Ba            2.48105213       -2.48105213       42.28123199
  |   16: Species Ba            0.00000000       -0.00000000       59.90598681
  |   17: Species S             0.00000000        2.48105213        0.00000000
  |   18: Species S            -2.48105213        4.96210426       17.62475482
[...]
   1280       0.00000           0.053566            1.45760
   1281       0.00000           0.053768            1.46310
   1282       0.00000           0.053769            1.46313

  What follows are estimated values for band gap, HOMO, LUMO, etc.
  | They are estimated on a discrete k-point grid and not necessarily exact.
  | For converged numbers, create a DOS and/or band structure plot on a denser k-grid.

  Highest occupied state (VBM) at     -7.44500983 eV (relative to internal zero)
  | Occupation number:      1.99999981
  | K-point:       3 at    0.000000    0.000000    0.500000 (in units of recip. lattice)

  Lowest unoccupied state (CBM) at    -7.13755833 eV (relative to internal zero)
  | Occupation number:      0.00000000
  | K-point:       1 at    0.000000    0.000000    0.000000 (in units of recip. lattice)

  ESTIMATED overall HOMO-LUMO gap:      0.30745150 eV between HOMO at k-point 3 and LUMO at k-point 1
  | This appears to be an indirect band gap.
  | Smallest direct gap :      0.30745337 eV for k_point 1 at    0.000000    0.000000    0.000000 (in units of recip. lattice)
  The gap value is above 0.2 eV. Unless you are using a very sparse k-point grid,
  this system is most likely an insulator or a semiconductor.

  | Chemical Potential                          :    -7.40818930 eV
  | Note that, for insulating systems, the printed 'chemical potential' value is not uniquely defined.
  | It can be anywhere in the energy gap, as long as it correctly separates occupied and unoccupied states.
  | In systems with a gap, the physically relevant chemical potential is the VBM or HOMO.

  Self-consistency cycle converged.


------------------------------------------------------------
  End self-consistency iteration #   130       :  max(cpu_time)    wall_clock(cpu1)
  | Time for this iteration                     :       15.987 s          15.966 s
  | Charge density & force component update     :       11.145 s          11.146 s
  | Density mixing                              :        0.038 s           0.011 s
  | Hartree multipole update                    :        0.022 s           0.022 s
  | Hartree multipole summation                 :        0.929 s           0.929 s
  | Hartree pot. SCF incomplete forces          :        0.580 s           0.580 s
  | Integration                                 :        0.667 s           0.668 s
  | Solution of K.-S. eqns.                     :        2.592 s           2.593 s
  | Total energy evaluation                     :        0.003 s           0.002 s

  Partial memory accounting:
  | Current value for overall tracked memory usage:
  |   Minimum:      137.428 MB (on task   15)
  |   Maximum:      140.135 MB (on task   16)
  |   Average:      139.600 MB
  | Peak value for overall tracked memory usage:
  |   Minimum:      328.156 MB (on task   15 after allocating temp_ham_ovlp)
  |   Maximum:      330.863 MB (on task   16 after allocating temp_ham_ovlp)
  |   Average:      330.328 MB
  | Largest tracked array allocation so far:
  |   Minimum:       95.365 MB (overlap_matrix on task    0)
  |   Maximum:       95.365 MB (overlap_matrix on task    0)
  |   Average:       95.365 MB
  Note:  These values currently only include a subset of arrays which are explicitly tracked.
  The "true" memory usage will be greater.
------------------------------------------------------------
  Removing unitary transformations (pure translations, rotations) from forces on atoms.
  Atomic forces before filtering:
  | Net force on center of mass :   0.198547E-08 -0.196607E-04  0.670452E-04 eV/A
  Atomic forces after filtering:
  | Net force on center of mass :  -0.239559E-17 -0.256981E-17 -0.181194E-16 eV/A

  Energy and forces in a compact form:
  | Total energy uncorrected      :         -0.522028710825732E+07 eV
  | Total energy corrected        :         -0.522028710825732E+07 eV  <-- do not rely on this value for anything but (periodic) metals
  | Electronic free energy        :         -0.522028710825732E+07 eV
  Total atomic forces (unitary forces cleaned) [eV/Ang]:
  |    1          0.297508659476922E-03         -0.350632483173000E-04         -0.503578230414659E-02
  |    2         -0.169170172060014E-03          0.168015413975366E-03         -0.501265783597590E-02
  |    3         -0.477004597710426E-03          0.482444934352414E-03         -0.499437543938477E-02
  |    4          0.133842568374971E-04         -0.279754825839163E-03         -0.498930854998051E-02
  |    5         -0.944750330849875E-03         -0.111287325430435E-02          0.891316369674691E-03
  |    6         -0.106617250905901E-02          0.105185574909436E-02          0.103684950175316E-02
  |    7          0.960926790549451E-03         -0.959759476092607E-03          0.881252642663626E-03
  |    8          0.110885642995053E-02          0.983039546621362E-03          0.990142504142114E-03
  |    9          0.123849284943737E-02          0.105485879711950E-02          0.214142829428911E-02
  |   10          0.112079965210665E-02         -0.111767193308948E-02          0.218506564984675E-02
  |   11         -0.122821030045181E-02          0.124469424321719E-02          0.240082774606744E-02
  |   12         -0.106500774186024E-02         -0.120450577880999E-02          0.246824704976940E-02
  |   13          0.497688933347060E-04         -0.369201910862053E-04          0.273452773445940E-02
  |   14         -0.708038692934628E-04          0.108507665803901E-03          0.187653374505600E-02
  |   15          0.114295721752432E-03         -0.767345688493501E-04          0.190367382324192E-02
  |   16          0.117299461496676E-03          0.126585640415458E-03          0.898448903983810E-03
  |   17          0.829390350617249E-04          0.107654917056133E-02          0.984580019336163E-03
  |   18          0.846693343136045E-04         -0.106100104534536E-02          0.915484184075874E-03
  |   19         -0.258711506102157E-03          0.110834145120718E-01         -0.363014344277735E-02
  |   20         -0.259511106683806E-03         -0.128563359080641E-01         -0.537493425600691E-02
  |   21          0.128560871200976E-01          0.258609429493587E-03         -0.537494534230449E-02
  |   22          0.106235296365620E-02         -0.815659723796925E-04          0.914611055476506E-03
  |   23         -0.110845527196926E-01          0.257587097520681E-03         -0.362937830208365E-02
  |   24         -0.107578176143120E-02         -0.798319879925594E-04          0.984519723390850E-03
  |   25         -0.242763247345056E-02          0.243058723999408E-02          0.137250018151955E+00
  |   26         -0.134954911040446E-03         -0.269341894652867E-03          0.859031738457757E-02
  |   27          0.267810132895210E-03          0.137628012186168E-03          0.859111394261223E-02
  |   28          0.182421532428001E-03         -0.181973655879346E-03          0.341417406636761E-02
  |   29         -0.633773506383081E-04         -0.686635830125599E-04         -0.109167018113295E-03
  |   30          0.232108869426089E-03         -0.438995693470652E-05         -0.323084596079048E-02
  |   31          0.347651926851776E-04         -0.263983939755204E-03         -0.323497792657527E-02
  |   32          0.612302024340733E-04         -0.646183638632107E-04         -0.143466736255794E-01
  |   33          0.173769441765879E-03         -0.830554563190860E-04         -0.135747815530782E-01
  |   34          0.646521070676773E-04         -0.323558851443291E-03         -0.297861317219748E-02
  |   35          0.229936713894767E-03          0.397552149728220E-04         -0.297850955006499E-02
  |   36         -0.387661684605847E-04         -0.705475512790853E-04         -0.709040805908133E-03
  |   37         -0.624463811829709E-04         -0.718983344173203E-04         -0.269708355058730E-02
  |   38         -0.122280174253490E-03          0.104530968094819E-03         -0.315789449974839E-02
  |   39          0.122437377848186E-03         -0.109724494711350E-03         -0.319431604626221E-02
  |   40          0.136424559235414E-03          0.113262753500568E-03         -0.464722561270425E-02
  |   41         -0.111476163493800E-01          0.258181710841492E-03         -0.397667840290805E-02
  |   42         -0.117595146203406E-02         -0.765364817485376E-04          0.844355316720592E-03
  |   43          0.130415928166575E-01          0.270803514307691E-03         -0.589072882319133E-02
  |   44          0.118585776193399E-02         -0.892140643605607E-04          0.768170309288496E-03
  |   45         -0.254031475536933E-03         -0.130600302327000E-01         -0.587331296229478E-02
  |   46         -0.241949590317083E-03          0.111292876147079E-01         -0.400882689692987E-02
  |   47          0.635229528410859E-04         -0.116715736477897E-02          0.785250096468468E-03
  |   48          0.503896051423773E-04          0.119475496713429E-02          0.812842438189231E-03
  |   49          0.245023023086348E-03         -0.206887405740938E-03         -0.969802635031307E-03
  |   50          0.504109183936506E-04          0.780043583670366E-04         -0.135633346869739E-02
  |   51         -0.184347900215101E-03         -0.137515852149972E-03         -0.749799984989092E-03
  |   52         -0.245262472875301E-04          0.982578148359156E-04         -0.115443350427691E-02
  |   53         -0.194498706903645E-03          0.254656207858435E-03         -0.946747100019160E-03
  |   54         -0.127803529197276E-03         -0.173258362362593E-03         -0.756350204363079E-03
  |   55          0.747609588017594E-04         -0.523488325525914E-05         -0.135372407947535E-02
  |   56          0.864085265276108E-04         -0.807373218464411E-04         -0.114344101074166E-02
  |   57          0.118064478013216E-05          0.862787760943783E-06         -0.240438262327762E-02
  |   58         -0.111286557514189E-02         -0.299273930587623E-04         -0.499137667162921E-02
  |   59          0.265344286382499E-04          0.110533209167391E-02         -0.499521404169407E-02
  |   60          0.442365537101078E-03         -0.445031369621903E-03         -0.355941751981021E-01
  |   61          0.232497557996475E-03         -0.192368708209906E-03         -0.221606208957295E-01
  |   62          0.148219836440636E-04          0.107295107573160E-02         -0.469601044276146E-02
  |   63         -0.106924397224537E-02         -0.174500516662714E-04         -0.469150556554604E-02
  |   64         -0.305568684492807E-04         -0.159263081724614E-04         -0.194433742196088E-02
  |   65         -0.473072958126437E-03         -0.531189075624039E-03          0.204153683485446E-02
  |   66         -0.325409759866292E-03          0.411054821364709E-03          0.468443480085811E-02
  |   67          0.390746283905365E-03         -0.312584519431158E-03          0.471200260862979E-02
  |   68          0.391958171720293E-03          0.358750313586713E-03          0.585673183013966E-02

  ------------------------------------ 
  Start decomposition of the XC Energy 
  ------------------------------------ 
  X and C from original XC functional choice 
  Hartree-Fock Energy :          0.000000000 Ha              0.000000000 eV
  X Energy            :      -5376.119863561 Ha        -146291.664725452 eV
  C Energy            :       -112.346678902 Ha          -3057.108676910 eV
  XC Energy w/o HF    :      -5488.466542464 Ha        -149348.773402362 eV
  Total XC Energy     :      -5488.466542464 Ha        -149348.773402362 eV
  ------------------------------------ 
  LDA X and C from self-consistent density 
  X Energy LDA        :      -5211.413602976 Ha        -141809.779339110 eV
  C Energy LDA        :       -180.827177352 Ha          -4920.557850987 eV
  ------------------------------------ 
  End decomposition of the XC Energy 
  ------------------------------------ 

------------------------------------------------------------

------------------------------------------------------------------------------
  Final output of selected total energy values:

  The following output summarizes some interesting total energy values
  at the end of a run (AFTER all relaxation, molecular dynamics, etc.).

  | Total energy of the DFT / Hartree-Fock s.c.f. calculation      :       -5220287.108257323 eV
  | Final zero-broadening corrected energy (caution - metals only) :       -5220287.108257323 eV
  | For reference only, the value of 1 Hartree used in FHI-aims is :             27.211384500 eV
  | For reference only, the overall average (free atom contribution
  | + realspace contribution) of the electrostatic potential after
  | s.c.f. convergence is                                          :            -16.530111157 eV

  Before relying on these values, please be sure to understand exactly which
  total energy value is referred to by a given number. Different objects may
  all carry the same name 'total energy'. Definitions:

  Total energy of the DFT / Hartree-Fock s.c.f. calculation:
  | Note that this energy does not include ANY quantities calculated after the
  | s.c.f. cycle, in particular not ANY RPA, MP2, etc. many-body perturbation terms.

  Final zero-broadening corrected energy:
  | For metallic systems only, a broadening of the occupation numbers at the Fermi
  | level can be extrapolated back to zero broadening by an electron-gas inspired
  | formula. For all systems that are not real metals, this value can be
  | meaningless and should be avoided.

------------------------------------------------------------------------------
  Methods described in the following list of references were used in this FHI-aims run.
  If you publish the results, please make sure to cite these reference if they apply.
  FHI-aims is an academic code, and for our developers (often, Ph.D. students
  and postdocs), scientific credit in the community is essential.
  Thank you for helping us!

  For any use of FHI-aims, please cite:

    Volker Blum, Ralf Gehrke, Felix Hanke, Paula Havu, Ville Havu,
    Xinguo Ren, Karsten Reuter, and Matthias Scheffler
    'Ab initio molecular simulations with numeric atom-centered orbitals'
    Computer Physics Communications 180, 2175-2196 (2009)
    http://doi.org/10.1016/j.cpc.2009.06.022


  The provided symmetry information was generated with SPGlib:

    Atsushi Togo, Yusuke Seto, Dimitar Pashov
    SPGlib 1.7.3 obtained from http://spglib.sourceforge.net
    Copyright (C) 2008 Atsushi Togo


  The ELSI infrastructure was used in your run to solve the Kohn-Sham electronic structure.
  Please check out http://elsi-interchange.org to learn more.
  If scalability is important for your project, please acknowledge ELSI by citing:

    V. W-z. Yu, F. Corsetti, A. Garcia, W. P. Huhn, M. Jacquelin, W. Jia,
    B. Lange, L. Lin, J. Lu, W. Mi, A. Seifitokaldani, A. Vazquez-Mayagoitia,
    C. Yang, H. Yang, and V. Blum
    'ELSI: A unified software interface for Kohn-Sham electronic structure solvers'
    Computer Physics Communications 222, 267-285 (2018).
    http://doi.org/10.1016/j.cpc.2017.09.007


  For the real-space grid partitioning and parallelization used in this calculation, please cite:

    Ville Havu, Volker Blum, Paula Havu, and Matthias Scheffler,
    'Efficient O(N) integration for all-electron electronic structure calculation'
    'using numerically tabulated basis functions'
    Journal of Computational Physics 228, 8367-8379 (2009).
    http://doi.org/10.1016/j.jcp.2009.08.008

  Of course, there are many other important community references, e.g., those cited in the
  above references. Our list is limited to references that describe implementations in the
  FHI-aims code. The reason is purely practical (length of this list) - please credit others as well.

   One or more s.c.f. cycles took more than 50 s.c.f. iterations.
   It might be worth adjusting your convergence settings. For example,
   metals need a larger broadening and a smaller "charge_mix_param" value than semiconductors.

 *********************************************************************
   Your are running FHI-aims on many cores. To achieve optimal
   performance for your particular architecture, it might be necessary
   to tune the following compilation and calculation settings:
    * Choosing the right Scalapack and MPI Libraries for your
       architecture is essential. If in doubt, refer to the
       documentation or the sysadmin of your supercomputer.
    * Please review our documentation of Makefile choices, particularly
       for ELPA, in the manual.
    * Some of the following FHI-aims keywords or combination thereof
       may be helpful:
        - FHI-aims setting: use_local_index .true.
        - FHI-aims setting: load_balancing .true.
        - FHI-aims setting: use_alltoall .false.
   Be mindful that the usefulness of these keywords can depend on your
   actual run and on the actual computer you are using. Please check
   their description in the manual and perform specific benchmarks to
   determine what is optimal for your computer. More detailed
   information and examples can be found at:
 http://aimsclub.fhi-berlin.mpg.de/wiki/index.php/Large_scale_settings
 *********************************************************************

------------------------------------------------------------
          Leaving FHI-aims.
          Date     :  20221029, Time     :  172429.582

          Computational steps:
          | Number of self-consistency cycles          :          130
          | Number of SCF (re)initializations          :            1

          Detailed time accounting                     :  max(cpu_time)    wall_clock(cpu1)
          | Total time                                  :      710.073 s         711.132 s
          | Preparation time                            :        0.610 s           0.672 s
          | Boundary condition initalization            :        0.735 s           0.735 s
          | Grid partitioning                           :        1.100 s           1.100 s
          | Preloading free-atom quantities on grid     :        0.228 s           0.228 s
          | Free-atom superposition energy              :        0.021 s           0.021 s
          | Total time for integrations                 :       88.436 s          88.437 s
          | Total time for solution of K.-S. equations  :      341.857 s         341.857 s
          | Total time for density & force components   :      193.613 s         193.624 s
          | Total time for mixing & preconditioning     :       34.722 s          30.273 s
          | Total time for Hartree multipole update     :        2.865 s           2.868 s
          | Total time for Hartree multipole sum        :       42.892 s          42.902 s
          | Total time for total energy evaluation      :        0.356 s           0.355 s
          | Total time NSC force correction             :        1.160 s           1.160 s
          | Total time for scaled ZORA corrections      :        0.000 s           0.000 s

          Partial memory accounting:
          | Residual value for overall tracked memory usage across tasks:     0.000000 MB (should be 0.000000 MB)
          | Peak values for overall tracked memory usage:
          |   Minimum:      328.156 MB (on task   15 after allocating temp_ham_ovlp)
          |   Maximum:      330.863 MB (on task   16 after allocating temp_ham_ovlp)
          |   Average:      330.328 MB
          | Largest tracked array allocation:
          |   Minimum:       95.365 MB (overlap_matrix on task    0)
          |   Maximum:       95.365 MB (overlap_matrix on task    0)
          |   Average:       95.365 MB
          Note:  These values currently only include a subset of arrays which are explicitly tracked.
          The "true" memory usage will be greater.

          Have a nice day.
------------------------------------------------------------
