------------------------------------------------------------
          Invoking FHI-aims ...

          When using FHI-aims, please cite the following reference:

            Volker Blum, Ralf Gehrke, Felix Hanke, Paula Havu,
            Ville Havu, Xinguo Ren, Karsten Reuter, and Matthias Scheffler,
            'Ab Initio Molecular Simulations with Numeric Atom-Centered Orbitals',
            Computer Physics Communications 180, 2175-2196 (2009)

          In addition, many other developments in FHI-aims are likely important for
          your particular application. A partial list of references is given at the end of
          this file. Thank you for giving credit to the authors of these developments.

          For any questions about FHI-aims, please visit our slack channel at

            https://fhi-aims.slack.com

          and our main development and support site at

            https://aims-git.rz-berlin.mpg.de .

          The latter site, in particular, has a wiki to collect information, as well
          as an issue tracker to log discussions, suggest improvements, and report issues
          or bugs. https://aims-git.rz-berlin.mpg.de is also the main development site
          of the project and all new and updated code versions can be obtained there.
          Please send an email to aims-coordinators@fhi-berlin.mpg.de and we will add
          you to these sites. They are for you and everyone is welcome there.

------------------------------------------------------------



  Date     :  20220808, Time     :  185316.200
  Time zero on CPU 1             :   0.219962500000000E+01  s.
  Internal wall clock time zero  :           429216796.200  s.

  FHI-aims created a unique identifier for this run for later identification
  aims_uuid : EB116921-D6C5-4093-AB9D-CC4F43B9DBCD

  Build configuration of the current instance of FHI-aims
  -------------------------------------------------------
  FHI-aims version      : 220619
  Commit number         : 375d76c9a
  CMake host system     : Linux-4.12.14-197.78_9.1.64-cray_shasta_c
  CMake version         : 3.22.1
  Fortran compiler      : /opt/cray/pe/craype/2.7.6/bin/ftn (GNU) version 10.2.0
  Fortran compiler flags: -O2 -fallow-argument-mismatch -ffree-line-length-none
  C compiler            : /opt/cray/pe/craype/2.7.6/bin/cc (GNU) version 10.2.0
  C compiler flags      : -O2
  Using MPI
  Using ScaLAPACK
  Using LibXC
  Using i-PI
  Using RLSY
  Linking against:

  Using     2048 parallel tasks.
  Task        0 on host nid001195 reporting.
  Task        1 on host nid001195 reporting.
  Task        2 on host nid001195 reporting.
  Task        3 on host nid001195 reporting.
  Task        4 on host nid001195 reporting.
  Task        5 on host nid001195 reporting.
  Task        6 on host nid001195 reporting.
  Task        7 on host nid001195 reporting.
  Task        8 on host nid001195 reporting.
  Task        9 on host nid001195 reporting.
  Task       10 on host nid001195 reporting.
  Task       11 on host nid001195 reporting.
  Task       12 on host nid001195 reporting.
  Task       13 on host nid001195 reporting.
  Task       14 on host nid001195 reporting.
  Task       15 on host nid001195 reporting.
  Task       16 on host nid001195 reporting.
  Task       17 on host nid001195 reporting.
  Task       18 on host nid001195 reporting.
  Task       19 on host nid001195 reporting.
  Task       20 on host nid001195 reporting.
  Task       21 on host nid001195 reporting.
  Task       22 on host nid001195 reporting.
  Task       23 on host nid001195 reporting.
  Task       24 on host nid001195 reporting.
  Task       25 on host nid001195 reporting.
  Task       26 on host nid001195 reporting.
  Task       27 on host nid001195 reporting.
  Task       28 on host nid001195 reporting.
  Task       29 on host nid001195 reporting.
  Task       30 on host nid001195 reporting.
  Task       31 on host nid001195 reporting.
  Task       32 on host nid001195 reporting.
  Task       33 on host nid001195 reporting.
  Task       34 on host nid001195 reporting.
  Task       35 on host nid001195 reporting.
  Task       36 on host nid001195 reporting.
  Task       37 on host nid001195 reporting.
  Task       38 on host nid001195 reporting.
  Task       39 on host nid001195 reporting.
  Task       40 on host nid001195 reporting.
  Task       41 on host nid001195 reporting.
  Task       42 on host nid001195 reporting.
  Task       43 on host nid001195 reporting.
  Task       44 on host nid001195 reporting.
  Task       45 on host nid001195 reporting.
  Task       46 on host nid001195 reporting.
  Task       47 on host nid001195 reporting.
  Task       48 on host nid001195 reporting.
  Task       49 on host nid001195 reporting.
  Task       50 on host nid001195 reporting.
  Task       51 on host nid001195 reporting.
  Task       52 on host nid001195 reporting.
  Task       53 on host nid001195 reporting.
  Task       54 on host nid001195 reporting.
  Task       55 on host nid001195 reporting.
  Task       56 on host nid001195 reporting.
  Task       57 on host nid001195 reporting.
  Task       58 on host nid001195 reporting.
  Task       59 on host nid001195 reporting.
  Task       60 on host nid001195 reporting.
  Task       61 on host nid001195 reporting.
  Task       62 on host nid001195 reporting.
  Task       63 on host nid001195 reporting.
  Task       64 on host nid001310 reporting.
  Task       65 on host nid001310 reporting.
  Task       66 on host nid001310 reporting.
  Task       67 on host nid001310 reporting.
  Task       68 on host nid001310 reporting.
  Task       69 on host nid001310 reporting.
  Task       70 on host nid001310 reporting.
  Task       71 on host nid001310 reporting.
  Task       72 on host nid001310 reporting.
  Task       73 on host nid001310 reporting.
  Task       74 on host nid001310 reporting.
  Task       75 on host nid001310 reporting.
  Task       76 on host nid001310 reporting.
  Task       77 on host nid001310 reporting.
  Task       78 on host nid001310 reporting.
  Task       79 on host nid001310 reporting.
  Task       80 on host nid001310 reporting.
  Task       81 on host nid001310 reporting.
  Task       82 on host nid001310 reporting.
  Task       83 on host nid001310 reporting.
  Task       84 on host nid001310 reporting.
  Task       85 on host nid001310 reporting.
  Task       86 on host nid001310 reporting.
  Task       87 on host nid001310 reporting.
  Task       88 on host nid001310 reporting.
  Task       89 on host nid001310 reporting.
  Task       90 on host nid001310 reporting.
  Task       91 on host nid001310 reporting.
  Task       92 on host nid001310 reporting.
  Task       93 on host nid001310 reporting.
  Task       94 on host nid001310 reporting.
  Task       95 on host nid001310 reporting.
  Task       96 on host nid001310 reporting.
  Task       97 on host nid001310 reporting.
  Task       98 on host nid001310 reporting.
  Task       99 on host nid001310 reporting.
  Task      100 on host nid001310 reporting.
  Task      101 on host nid001310 reporting.
  Task      102 on host nid001310 reporting.
  Task      103 on host nid001310 reporting.
  Task      104 on host nid001310 reporting.
  Task      105 on host nid001310 reporting.
  Task      106 on host nid001310 reporting.
  Task      107 on host nid001310 reporting.
  Task      108 on host nid001310 reporting.
  Task      109 on host nid001310 reporting.
  Task      110 on host nid001310 reporting.
  Task      111 on host nid001310 reporting.
  Task      112 on host nid001310 reporting.
  Task      113 on host nid001310 reporting.
  Task      114 on host nid001310 reporting.
  Task      115 on host nid001310 reporting.
  Task      116 on host nid001310 reporting.
  Task      117 on host nid001310 reporting.
  Task      118 on host nid001310 reporting.
  Task      119 on host nid001310 reporting.
  Task      120 on host nid001310 reporting.
  Task      121 on host nid001310 reporting.
  Task      122 on host nid001310 reporting.
  Task      123 on host nid001310 reporting.
  Task      124 on host nid001310 reporting.
  Task      125 on host nid001310 reporting.
  Task      126 on host nid001310 reporting.
  Task      127 on host nid001310 reporting.
  Task      128 on host nid004072 reporting.
  Task      129 on host nid004072 reporting.
  Task      130 on host nid004072 reporting.
  Task      131 on host nid004072 reporting.
  Task      132 on host nid004072 reporting.
  Task      133 on host nid004072 reporting.
  Task      134 on host nid004072 reporting.
  Task      135 on host nid004072 reporting.
  Task      136 on host nid004072 reporting.
  Task      137 on host nid004072 reporting.
  Task      138 on host nid004072 reporting.
  Task      139 on host nid004072 reporting.
  Task      140 on host nid004072 reporting.
  Task      141 on host nid004072 reporting.
  Task      142 on host nid004072 reporting.
  Task      143 on host nid004072 reporting.
  Task      144 on host nid004072 reporting.
  Task      145 on host nid004072 reporting.
  Task      146 on host nid004072 reporting.
  Task      147 on host nid004072 reporting.
  Task      148 on host nid004072 reporting.
  Task      149 on host nid004072 reporting.
  Task      150 on host nid004072 reporting.
  Task      151 on host nid004072 reporting.
  Task      152 on host nid004072 reporting.
  Task      153 on host nid004072 reporting.
  Task      154 on host nid004072 reporting.
  Task      155 on host nid004072 reporting.
  Task      156 on host nid004072 reporting.
  Task      157 on host nid004072 reporting.
  Task      158 on host nid004072 reporting.
  Task      159 on host nid004072 reporting.
  Task      160 on host nid004072 reporting.
  Task      161 on host nid004072 reporting.
  Task      162 on host nid004072 reporting.
  Task      163 on host nid004072 reporting.
  Task      164 on host nid004072 reporting.
  Task      165 on host nid004072 reporting.
  Task      166 on host nid004072 reporting.
  Task      167 on host nid004072 reporting.
  Task      168 on host nid004072 reporting.
  Task      169 on host nid004072 reporting.
  Task      170 on host nid004072 reporting.
  Task      171 on host nid004072 reporting.
  Task      172 on host nid004072 reporting.
  Task      173 on host nid004072 reporting.
  Task      174 on host nid004072 reporting.
  Task      175 on host nid004072 reporting.
  Task      176 on host nid004072 reporting.
  Task      177 on host nid004072 reporting.
  Task      178 on host nid004072 reporting.
  Task      179 on host nid004072 reporting.
  Task      180 on host nid004072 reporting.
  Task      181 on host nid004072 reporting.
  Task      182 on host nid004072 reporting.
  Task      183 on host nid004072 reporting.
  Task      184 on host nid004072 reporting.
  Task      185 on host nid004072 reporting.
  Task      186 on host nid004072 reporting.
  Task      187 on host nid004072 reporting.
  Task      188 on host nid004072 reporting.
  Task      189 on host nid004072 reporting.
  Task      190 on host nid004072 reporting.
  Task      191 on host nid004072 reporting.
  Task      192 on host nid004118 reporting.
  Task      193 on host nid004118 reporting.
  Task      194 on host nid004118 reporting.
  Task      195 on host nid004118 reporting.
  Task      196 on host nid004118 reporting.
  Task      197 on host nid004118 reporting.
  Task      198 on host nid004118 reporting.
  Task      199 on host nid004118 reporting.
  Task      200 on host nid004118 reporting.
  Task      201 on host nid004118 reporting.
  Task      202 on host nid004118 reporting.
  Task      203 on host nid004118 reporting.
  Task      204 on host nid004118 reporting.
  Task      205 on host nid004118 reporting.
  Task      206 on host nid004118 reporting.
  Task      207 on host nid004118 reporting.
  Task      208 on host nid004118 reporting.
  Task      209 on host nid004118 reporting.
  Task      210 on host nid004118 reporting.
  Task      211 on host nid004118 reporting.
  Task      212 on host nid004118 reporting.
  Task      213 on host nid004118 reporting.
  Task      214 on host nid004118 reporting.
  Task      215 on host nid004118 reporting.
  Task      216 on host nid004118 reporting.
  Task      217 on host nid004118 reporting.
  Task      218 on host nid004118 reporting.
  Task      219 on host nid004118 reporting.
  Task      220 on host nid004118 reporting.
  Task      221 on host nid004118 reporting.
  Task      222 on host nid004118 reporting.
  Task      223 on host nid004118 reporting.
  Task      224 on host nid004118 reporting.
  Task      225 on host nid004118 reporting.
  Task      226 on host nid004118 reporting.
  Task      227 on host nid004118 reporting.
  Task      228 on host nid004118 reporting.
  Task      229 on host nid004118 reporting.
  Task      230 on host nid004118 reporting.
  Task      231 on host nid004118 reporting.
  Task      232 on host nid004118 reporting.
  Task      233 on host nid004118 reporting.
  Task      234 on host nid004118 reporting.
  Task      235 on host nid004118 reporting.
  Task      236 on host nid004118 reporting.
  Task      237 on host nid004118 reporting.
  Task      238 on host nid004118 reporting.
  Task      239 on host nid004118 reporting.
  Task      240 on host nid004118 reporting.
  Task      241 on host nid004118 reporting.
  Task      242 on host nid004118 reporting.
  Task      243 on host nid004118 reporting.
  Task      244 on host nid004118 reporting.
  Task      245 on host nid004118 reporting.
  Task      246 on host nid004118 reporting.
  Task      247 on host nid004118 reporting.
  Task      248 on host nid004118 reporting.
  Task      249 on host nid004118 reporting.
  Task      250 on host nid004118 reporting.
  Task      251 on host nid004118 reporting.
  Task      252 on host nid004118 reporting.
  Task      253 on host nid004118 reporting.
  Task      254 on host nid004118 reporting.
  Task      255 on host nid004118 reporting.
  Task      256 on host nid004170 reporting.
  Task      257 on host nid004170 reporting.
  Task      258 on host nid004170 reporting.
  Task      259 on host nid004170 reporting.
  Task      260 on host nid004170 reporting.
  Task      261 on host nid004170 reporting.
  Task      262 on host nid004170 reporting.
  Task      263 on host nid004170 reporting.
  Task      264 on host nid004170 reporting.
  Task      265 on host nid004170 reporting.
  Task      266 on host nid004170 reporting.
  Task      267 on host nid004170 reporting.
  Task      268 on host nid004170 reporting.
  Task      269 on host nid004170 reporting.
  Task      270 on host nid004170 reporting.
  Task      271 on host nid004170 reporting.
  Task      272 on host nid004170 reporting.
  Task      273 on host nid004170 reporting.
  Task      274 on host nid004170 reporting.
  Task      275 on host nid004170 reporting.
  Task      276 on host nid004170 reporting.
  Task      277 on host nid004170 reporting.
  Task      278 on host nid004170 reporting.
  Task      279 on host nid004170 reporting.
  Task      280 on host nid004170 reporting.
  Task      281 on host nid004170 reporting.
  Task      282 on host nid004170 reporting.
  Task      283 on host nid004170 reporting.
  Task      284 on host nid004170 reporting.
  Task      285 on host nid004170 reporting.
  Task      286 on host nid004170 reporting.
  Task      287 on host nid004170 reporting.
  Task      288 on host nid004170 reporting.
  Task      289 on host nid004170 reporting.
  Task      290 on host nid004170 reporting.
  Task      291 on host nid004170 reporting.
  Task      292 on host nid004170 reporting.
  Task      293 on host nid004170 reporting.
  Task      294 on host nid004170 reporting.
  Task      295 on host nid004170 reporting.
  Task      296 on host nid004170 reporting.
  Task      297 on host nid004170 reporting.
  Task      298 on host nid004170 reporting.
  Task      299 on host nid004170 reporting.
  Task      300 on host nid004170 reporting.
  Task      301 on host nid004170 reporting.
  Task      302 on host nid004170 reporting.
  Task      303 on host nid004170 reporting.
  Task      304 on host nid004170 reporting.
  Task      305 on host nid004170 reporting.
  Task      306 on host nid004170 reporting.
  Task      307 on host nid004170 reporting.
  Task      308 on host nid004170 reporting.
  Task      309 on host nid004170 reporting.
  Task      310 on host nid004170 reporting.
  Task      311 on host nid004170 reporting.
  Task      312 on host nid004170 reporting.
  Task      313 on host nid004170 reporting.
  Task      314 on host nid004170 reporting.
  Task      315 on host nid004170 reporting.
  Task      316 on host nid004170 reporting.
  Task      317 on host nid004170 reporting.
  Task      318 on host nid004170 reporting.
  Task      319 on host nid004170 reporting.
  Task      320 on host nid004172 reporting.
  Task      321 on host nid004172 reporting.
  Task      322 on host nid004172 reporting.
  Task      323 on host nid004172 reporting.
  Task      324 on host nid004172 reporting.
  Task      325 on host nid004172 reporting.
  Task      326 on host nid004172 reporting.
  Task      327 on host nid004172 reporting.
  Task      328 on host nid004172 reporting.
  Task      329 on host nid004172 reporting.
  Task      330 on host nid004172 reporting.
  Task      331 on host nid004172 reporting.
  Task      332 on host nid004172 reporting.
  Task      333 on host nid004172 reporting.
  Task      334 on host nid004172 reporting.
  Task      335 on host nid004172 reporting.
  Task      336 on host nid004172 reporting.
  Task      337 on host nid004172 reporting.
  Task      338 on host nid004172 reporting.
  Task      339 on host nid004172 reporting.
  Task      340 on host nid004172 reporting.
  Task      341 on host nid004172 reporting.
  Task      342 on host nid004172 reporting.
  Task      343 on host nid004172 reporting.
  Task      344 on host nid004172 reporting.
  Task      345 on host nid004172 reporting.
  Task      346 on host nid004172 reporting.
  Task      347 on host nid004172 reporting.
  Task      348 on host nid004172 reporting.
  Task      349 on host nid004172 reporting.
  Task      350 on host nid004172 reporting.
  Task      351 on host nid004172 reporting.
  Task      352 on host nid004172 reporting.
  Task      353 on host nid004172 reporting.
  Task      354 on host nid004172 reporting.
  Task      355 on host nid004172 reporting.
  Task      356 on host nid004172 reporting.
  Task      357 on host nid004172 reporting.
  Task      358 on host nid004172 reporting.
  Task      359 on host nid004172 reporting.
  Task      360 on host nid004172 reporting.
  Task      361 on host nid004172 reporting.
  Task      362 on host nid004172 reporting.
  Task      363 on host nid004172 reporting.
  Task      364 on host nid004172 reporting.
  Task      365 on host nid004172 reporting.
  Task      366 on host nid004172 reporting.
  Task      367 on host nid004172 reporting.
  Task      368 on host nid004172 reporting.
  Task      369 on host nid004172 reporting.
  Task      370 on host nid004172 reporting.
  Task      371 on host nid004172 reporting.
  Task      372 on host nid004172 reporting.
  Task      373 on host nid004172 reporting.
  Task      374 on host nid004172 reporting.
  Task      375 on host nid004172 reporting.
  Task      376 on host nid004172 reporting.
  Task      377 on host nid004172 reporting.
  Task      378 on host nid004172 reporting.
  Task      379 on host nid004172 reporting.
  Task      380 on host nid004172 reporting.
  Task      381 on host nid004172 reporting.
  Task      382 on host nid004172 reporting.
  Task      383 on host nid004172 reporting.
  Task      384 on host nid004173 reporting.
  Task      385 on host nid004173 reporting.
  Task      386 on host nid004173 reporting.
  Task      387 on host nid004173 reporting.
  Task      388 on host nid004173 reporting.
  Task      389 on host nid004173 reporting.
  Task      390 on host nid004173 reporting.
  Task      391 on host nid004173 reporting.
  Task      392 on host nid004173 reporting.
  Task      393 on host nid004173 reporting.
  Task      394 on host nid004173 reporting.
  Task      395 on host nid004173 reporting.
  Task      396 on host nid004173 reporting.
  Task      397 on host nid004173 reporting.
  Task      398 on host nid004173 reporting.
  Task      399 on host nid004173 reporting.
  Task      400 on host nid004173 reporting.
  Task      401 on host nid004173 reporting.
  Task      402 on host nid004173 reporting.
  Task      403 on host nid004173 reporting.
  Task      404 on host nid004173 reporting.
  Task      405 on host nid004173 reporting.
  Task      406 on host nid004173 reporting.
  Task      407 on host nid004173 reporting.
  Task      408 on host nid004173 reporting.
  Task      409 on host nid004173 reporting.
  Task      410 on host nid004173 reporting.
  Task      411 on host nid004173 reporting.
  Task      412 on host nid004173 reporting.
  Task      413 on host nid004173 reporting.
  Task      414 on host nid004173 reporting.
  Task      415 on host nid004173 reporting.
  Task      416 on host nid004173 reporting.
  Task      417 on host nid004173 reporting.
  Task      418 on host nid004173 reporting.
  Task      419 on host nid004173 reporting.
  Task      420 on host nid004173 reporting.
  Task      421 on host nid004173 reporting.
  Task      422 on host nid004173 reporting.
  Task      423 on host nid004173 reporting.
  Task      424 on host nid004173 reporting.
  Task      425 on host nid004173 reporting.
  Task      426 on host nid004173 reporting.
  Task      427 on host nid004173 reporting.
  Task      428 on host nid004173 reporting.
  Task      429 on host nid004173 reporting.
  Task      430 on host nid004173 reporting.
  Task      431 on host nid004173 reporting.
  Task      432 on host nid004173 reporting.
  Task      433 on host nid004173 reporting.
  Task      434 on host nid004173 reporting.
  Task      435 on host nid004173 reporting.
  Task      436 on host nid004173 reporting.
  Task      437 on host nid004173 reporting.
  Task      438 on host nid004173 reporting.
  Task      439 on host nid004173 reporting.
  Task      440 on host nid004173 reporting.
  Task      441 on host nid004173 reporting.
  Task      442 on host nid004173 reporting.
  Task      443 on host nid004173 reporting.
  Task      444 on host nid004173 reporting.
  Task      445 on host nid004173 reporting.
  Task      446 on host nid004173 reporting.
  Task      447 on host nid004173 reporting.
  Task      448 on host nid004174 reporting.
  Task      449 on host nid004174 reporting.
  Task      450 on host nid004174 reporting.
  Task      451 on host nid004174 reporting.
  Task      452 on host nid004174 reporting.
  Task      453 on host nid004174 reporting.
  Task      454 on host nid004174 reporting.
  Task      455 on host nid004174 reporting.
  Task      456 on host nid004174 reporting.
  Task      457 on host nid004174 reporting.
  Task      458 on host nid004174 reporting.
  Task      459 on host nid004174 reporting.
  Task      460 on host nid004174 reporting.
  Task      461 on host nid004174 reporting.
  Task      462 on host nid004174 reporting.
  Task      463 on host nid004174 reporting.
  Task      464 on host nid004174 reporting.
  Task      465 on host nid004174 reporting.
  Task      466 on host nid004174 reporting.
  Task      467 on host nid004174 reporting.
  Task      468 on host nid004174 reporting.
  Task      469 on host nid004174 reporting.
  Task      470 on host nid004174 reporting.
  Task      471 on host nid004174 reporting.
  Task      472 on host nid004174 reporting.
  Task      473 on host nid004174 reporting.
  Task      474 on host nid004174 reporting.
  Task      475 on host nid004174 reporting.
  Task      476 on host nid004174 reporting.
  Task      477 on host nid004174 reporting.
  Task      478 on host nid004174 reporting.
  Task      479 on host nid004174 reporting.
  Task      480 on host nid004174 reporting.
  Task      481 on host nid004174 reporting.
  Task      482 on host nid004174 reporting.
  Task      483 on host nid004174 reporting.
  Task      484 on host nid004174 reporting.
  Task      485 on host nid004174 reporting.
  Task      486 on host nid004174 reporting.
  Task      487 on host nid004174 reporting.
  Task      488 on host nid004174 reporting.
  Task      489 on host nid004174 reporting.
  Task      490 on host nid004174 reporting.
  Task      491 on host nid004174 reporting.
  Task      492 on host nid004174 reporting.
  Task      493 on host nid004174 reporting.
  Task      494 on host nid004174 reporting.
  Task      495 on host nid004174 reporting.
  Task      496 on host nid004174 reporting.
  Task      497 on host nid004174 reporting.
  Task      498 on host nid004174 reporting.
  Task      499 on host nid004174 reporting.
  Task      500 on host nid004174 reporting.
  Task      501 on host nid004174 reporting.
  Task      502 on host nid004174 reporting.
  Task      503 on host nid004174 reporting.
  Task      504 on host nid004174 reporting.
  Task      505 on host nid004174 reporting.
  Task      506 on host nid004174 reporting.
  Task      507 on host nid004174 reporting.
  Task      508 on host nid004174 reporting.
  Task      509 on host nid004174 reporting.
  Task      510 on host nid004174 reporting.
  Task      511 on host nid004174 reporting.
  Task      512 on host nid004176 reporting.
  Task      513 on host nid004176 reporting.
  Task      514 on host nid004176 reporting.
  Task      515 on host nid004176 reporting.
  Task      516 on host nid004176 reporting.
  Task      517 on host nid004176 reporting.
  Task      518 on host nid004176 reporting.
  Task      519 on host nid004176 reporting.
  Task      520 on host nid004176 reporting.
  Task      521 on host nid004176 reporting.
  Task      522 on host nid004176 reporting.
  Task      523 on host nid004176 reporting.
  Task      524 on host nid004176 reporting.
  Task      525 on host nid004176 reporting.
  Task      526 on host nid004176 reporting.
  Task      527 on host nid004176 reporting.
  Task      528 on host nid004176 reporting.
  Task      529 on host nid004176 reporting.
  Task      530 on host nid004176 reporting.
  Task      531 on host nid004176 reporting.
  Task      532 on host nid004176 reporting.
  Task      533 on host nid004176 reporting.
  Task      534 on host nid004176 reporting.
  Task      535 on host nid004176 reporting.
  Task      536 on host nid004176 reporting.
  Task      537 on host nid004176 reporting.
  Task      538 on host nid004176 reporting.
  Task      539 on host nid004176 reporting.
  Task      540 on host nid004176 reporting.
  Task      541 on host nid004176 reporting.
  Task      542 on host nid004176 reporting.
  Task      543 on host nid004176 reporting.
  Task      544 on host nid004176 reporting.
  Task      545 on host nid004176 reporting.
  Task      546 on host nid004176 reporting.
  Task      547 on host nid004176 reporting.
  Task      548 on host nid004176 reporting.
  Task      549 on host nid004176 reporting.
  Task      550 on host nid004176 reporting.
  Task      551 on host nid004176 reporting.
  Task      552 on host nid004176 reporting.
  Task      553 on host nid004176 reporting.
  Task      554 on host nid004176 reporting.
  Task      555 on host nid004176 reporting.
  Task      556 on host nid004176 reporting.
  Task      557 on host nid004176 reporting.
  Task      558 on host nid004176 reporting.
  Task      559 on host nid004176 reporting.
  Task      560 on host nid004176 reporting.
  Task      561 on host nid004176 reporting.
  Task      562 on host nid004176 reporting.
  Task      563 on host nid004176 reporting.
  Task      564 on host nid004176 reporting.
  Task      565 on host nid004176 reporting.
  Task      566 on host nid004176 reporting.
  Task      567 on host nid004176 reporting.
  Task      568 on host nid004176 reporting.
  Task      569 on host nid004176 reporting.
  Task      570 on host nid004176 reporting.
  Task      571 on host nid004176 reporting.
  Task      572 on host nid004176 reporting.
  Task      573 on host nid004176 reporting.
  Task      574 on host nid004176 reporting.
  Task      575 on host nid004176 reporting.
  Task      576 on host nid004183 reporting.
  Task      577 on host nid004183 reporting.
  Task      578 on host nid004183 reporting.
  Task      579 on host nid004183 reporting.
  Task      580 on host nid004183 reporting.
  Task      581 on host nid004183 reporting.
  Task      582 on host nid004183 reporting.
  Task      583 on host nid004183 reporting.
  Task      584 on host nid004183 reporting.
  Task      585 on host nid004183 reporting.
  Task      586 on host nid004183 reporting.
  Task      587 on host nid004183 reporting.
  Task      588 on host nid004183 reporting.
  Task      589 on host nid004183 reporting.
  Task      590 on host nid004183 reporting.
  Task      591 on host nid004183 reporting.
  Task      592 on host nid004183 reporting.
  Task      593 on host nid004183 reporting.
  Task      594 on host nid004183 reporting.
  Task      595 on host nid004183 reporting.
  Task      596 on host nid004183 reporting.
  Task      597 on host nid004183 reporting.
  Task      598 on host nid004183 reporting.
  Task      599 on host nid004183 reporting.
  Task      600 on host nid004183 reporting.
  Task      601 on host nid004183 reporting.
  Task      602 on host nid004183 reporting.
  Task      603 on host nid004183 reporting.
  Task      604 on host nid004183 reporting.
  Task      605 on host nid004183 reporting.
  Task      606 on host nid004183 reporting.
  Task      607 on host nid004183 reporting.
  Task      608 on host nid004183 reporting.
  Task      609 on host nid004183 reporting.
  Task      610 on host nid004183 reporting.
  Task      611 on host nid004183 reporting.
  Task      612 on host nid004183 reporting.
  Task      613 on host nid004183 reporting.
  Task      614 on host nid004183 reporting.
  Task      615 on host nid004183 reporting.
  Task      616 on host nid004183 reporting.
  Task      617 on host nid004183 reporting.
  Task      618 on host nid004183 reporting.
  Task      619 on host nid004183 reporting.
  Task      620 on host nid004183 reporting.
  Task      621 on host nid004183 reporting.
  Task      622 on host nid004183 reporting.
  Task      623 on host nid004183 reporting.
  Task      624 on host nid004183 reporting.
  Task      625 on host nid004183 reporting.
  Task      626 on host nid004183 reporting.
  Task      627 on host nid004183 reporting.
  Task      628 on host nid004183 reporting.
  Task      629 on host nid004183 reporting.
  Task      630 on host nid004183 reporting.
  Task      631 on host nid004183 reporting.
  Task      632 on host nid004183 reporting.
  Task      633 on host nid004183 reporting.
  Task      634 on host nid004183 reporting.
  Task      635 on host nid004183 reporting.
  Task      636 on host nid004183 reporting.
  Task      637 on host nid004183 reporting.
  Task      638 on host nid004183 reporting.
  Task      639 on host nid004183 reporting.
  Task      640 on host nid004184 reporting.
  Task      641 on host nid004184 reporting.
  Task      642 on host nid004184 reporting.
  Task      643 on host nid004184 reporting.
  Task      644 on host nid004184 reporting.
  Task      645 on host nid004184 reporting.
  Task      646 on host nid004184 reporting.
  Task      647 on host nid004184 reporting.
  Task      648 on host nid004184 reporting.
  Task      649 on host nid004184 reporting.
  Task      650 on host nid004184 reporting.
  Task      651 on host nid004184 reporting.
  Task      652 on host nid004184 reporting.
  Task      653 on host nid004184 reporting.
  Task      654 on host nid004184 reporting.
  Task      655 on host nid004184 reporting.
  Task      656 on host nid004184 reporting.
  Task      657 on host nid004184 reporting.
  Task      658 on host nid004184 reporting.
  Task      659 on host nid004184 reporting.
  Task      660 on host nid004184 reporting.
  Task      661 on host nid004184 reporting.
  Task      662 on host nid004184 reporting.
  Task      663 on host nid004184 reporting.
  Task      664 on host nid004184 reporting.
  Task      665 on host nid004184 reporting.
  Task      666 on host nid004184 reporting.
  Task      667 on host nid004184 reporting.
  Task      668 on host nid004184 reporting.
  Task      669 on host nid004184 reporting.
  Task      670 on host nid004184 reporting.
  Task      671 on host nid004184 reporting.
  Task      672 on host nid004184 reporting.
  Task      673 on host nid004184 reporting.
  Task      674 on host nid004184 reporting.
  Task      675 on host nid004184 reporting.
  Task      676 on host nid004184 reporting.
  Task      677 on host nid004184 reporting.
  Task      678 on host nid004184 reporting.
  Task      679 on host nid004184 reporting.
  Task      680 on host nid004184 reporting.
  Task      681 on host nid004184 reporting.
  Task      682 on host nid004184 reporting.
  Task      683 on host nid004184 reporting.
  Task      684 on host nid004184 reporting.
  Task      685 on host nid004184 reporting.
  Task      686 on host nid004184 reporting.
  Task      687 on host nid004184 reporting.
  Task      688 on host nid004184 reporting.
  Task      689 on host nid004184 reporting.
  Task      690 on host nid004184 reporting.
  Task      691 on host nid004184 reporting.
  Task      692 on host nid004184 reporting.
  Task      693 on host nid004184 reporting.
  Task      694 on host nid004184 reporting.
  Task      695 on host nid004184 reporting.
  Task      696 on host nid004184 reporting.
  Task      697 on host nid004184 reporting.
  Task      698 on host nid004184 reporting.
  Task      699 on host nid004184 reporting.
  Task      700 on host nid004184 reporting.
  Task      701 on host nid004184 reporting.
  Task      702 on host nid004184 reporting.
  Task      703 on host nid004184 reporting.
  Task      704 on host nid004185 reporting.
  Task      705 on host nid004185 reporting.
  Task      706 on host nid004185 reporting.
  Task      707 on host nid004185 reporting.
  Task      708 on host nid004185 reporting.
  Task      709 on host nid004185 reporting.
  Task      710 on host nid004185 reporting.
  Task      711 on host nid004185 reporting.
  Task      712 on host nid004185 reporting.
  Task      713 on host nid004185 reporting.
  Task      714 on host nid004185 reporting.
  Task      715 on host nid004185 reporting.
  Task      716 on host nid004185 reporting.
  Task      717 on host nid004185 reporting.
  Task      718 on host nid004185 reporting.
  Task      719 on host nid004185 reporting.
  Task      720 on host nid004185 reporting.
  Task      721 on host nid004185 reporting.
  Task      722 on host nid004185 reporting.
  Task      723 on host nid004185 reporting.
  Task      724 on host nid004185 reporting.
  Task      725 on host nid004185 reporting.
  Task      726 on host nid004185 reporting.
  Task      727 on host nid004185 reporting.
  Task      728 on host nid004185 reporting.
  Task      729 on host nid004185 reporting.
  Task      730 on host nid004185 reporting.
  Task      731 on host nid004185 reporting.
  Task      732 on host nid004185 reporting.
  Task      733 on host nid004185 reporting.
  Task      734 on host nid004185 reporting.
  Task      735 on host nid004185 reporting.
  Task      736 on host nid004185 reporting.
  Task      737 on host nid004185 reporting.
  Task      738 on host nid004185 reporting.
  Task      739 on host nid004185 reporting.
  Task      740 on host nid004185 reporting.
  Task      741 on host nid004185 reporting.
  Task      742 on host nid004185 reporting.
  Task      743 on host nid004185 reporting.
  Task      744 on host nid004185 reporting.
  Task      745 on host nid004185 reporting.
  Task      746 on host nid004185 reporting.
  Task      747 on host nid004185 reporting.
  Task      748 on host nid004185 reporting.
  Task      749 on host nid004185 reporting.
  Task      750 on host nid004185 reporting.
  Task      751 on host nid004185 reporting.
  Task      752 on host nid004185 reporting.
  Task      753 on host nid004185 reporting.
  Task      754 on host nid004185 reporting.
  Task      755 on host nid004185 reporting.
  Task      756 on host nid004185 reporting.
  Task      757 on host nid004185 reporting.
  Task      758 on host nid004185 reporting.
  Task      759 on host nid004185 reporting.
  Task      760 on host nid004185 reporting.
  Task      761 on host nid004185 reporting.
  Task      762 on host nid004185 reporting.
  Task      763 on host nid004185 reporting.
  Task      764 on host nid004185 reporting.
  Task      765 on host nid004185 reporting.
  Task      766 on host nid004185 reporting.
  Task      767 on host nid004185 reporting.
  Task      768 on host nid004186 reporting.
  Task      769 on host nid004186 reporting.
  Task      770 on host nid004186 reporting.
  Task      771 on host nid004186 reporting.
  Task      772 on host nid004186 reporting.
  Task      773 on host nid004186 reporting.
  Task      774 on host nid004186 reporting.
  Task      775 on host nid004186 reporting.
  Task      776 on host nid004186 reporting.
  Task      777 on host nid004186 reporting.
  Task      778 on host nid004186 reporting.
  Task      779 on host nid004186 reporting.
  Task      780 on host nid004186 reporting.
  Task      781 on host nid004186 reporting.
  Task      782 on host nid004186 reporting.
  Task      783 on host nid004186 reporting.
  Task      784 on host nid004186 reporting.
  Task      785 on host nid004186 reporting.
  Task      786 on host nid004186 reporting.
  Task      787 on host nid004186 reporting.
  Task      788 on host nid004186 reporting.
  Task      789 on host nid004186 reporting.
  Task      790 on host nid004186 reporting.
  Task      791 on host nid004186 reporting.
  Task      792 on host nid004186 reporting.
  Task      793 on host nid004186 reporting.
  Task      794 on host nid004186 reporting.
  Task      795 on host nid004186 reporting.
  Task      796 on host nid004186 reporting.
  Task      797 on host nid004186 reporting.
  Task      798 on host nid004186 reporting.
  Task      799 on host nid004186 reporting.
  Task      800 on host nid004186 reporting.
  Task      801 on host nid004186 reporting.
  Task      802 on host nid004186 reporting.
  Task      803 on host nid004186 reporting.
  Task      804 on host nid004186 reporting.
  Task      805 on host nid004186 reporting.
  Task      806 on host nid004186 reporting.
  Task      807 on host nid004186 reporting.
  Task      808 on host nid004186 reporting.
  Task      809 on host nid004186 reporting.
  Task      810 on host nid004186 reporting.
  Task      811 on host nid004186 reporting.
  Task      812 on host nid004186 reporting.
  Task      813 on host nid004186 reporting.
  Task      814 on host nid004186 reporting.
  Task      815 on host nid004186 reporting.
  Task      816 on host nid004186 reporting.
  Task      817 on host nid004186 reporting.
  Task      818 on host nid004186 reporting.
  Task      819 on host nid004186 reporting.
  Task      820 on host nid004186 reporting.
  Task      821 on host nid004186 reporting.
  Task      822 on host nid004186 reporting.
  Task      823 on host nid004186 reporting.
  Task      824 on host nid004186 reporting.
  Task      825 on host nid004186 reporting.
  Task      826 on host nid004186 reporting.
  Task      827 on host nid004186 reporting.
  Task      828 on host nid004186 reporting.
  Task      829 on host nid004186 reporting.
  Task      830 on host nid004186 reporting.
  Task      831 on host nid004186 reporting.
  Task      832 on host nid004187 reporting.
  Task      833 on host nid004187 reporting.
  Task      834 on host nid004187 reporting.
  Task      835 on host nid004187 reporting.
  Task      836 on host nid004187 reporting.
  Task      837 on host nid004187 reporting.
  Task      838 on host nid004187 reporting.
  Task      839 on host nid004187 reporting.
  Task      840 on host nid004187 reporting.
  Task      841 on host nid004187 reporting.
  Task      842 on host nid004187 reporting.
  Task      843 on host nid004187 reporting.
  Task      844 on host nid004187 reporting.
  Task      845 on host nid004187 reporting.
  Task      846 on host nid004187 reporting.
  Task      847 on host nid004187 reporting.
  Task      848 on host nid004187 reporting.
  Task      849 on host nid004187 reporting.
  Task      850 on host nid004187 reporting.
  Task      851 on host nid004187 reporting.
  Task      852 on host nid004187 reporting.
  Task      853 on host nid004187 reporting.
  Task      854 on host nid004187 reporting.
  Task      855 on host nid004187 reporting.
  Task      856 on host nid004187 reporting.
  Task      857 on host nid004187 reporting.
  Task      858 on host nid004187 reporting.
  Task      859 on host nid004187 reporting.
  Task      860 on host nid004187 reporting.
  Task      861 on host nid004187 reporting.
  Task      862 on host nid004187 reporting.
  Task      863 on host nid004187 reporting.
  Task      864 on host nid004187 reporting.
  Task      865 on host nid004187 reporting.
  Task      866 on host nid004187 reporting.
  Task      867 on host nid004187 reporting.
  Task      868 on host nid004187 reporting.
  Task      869 on host nid004187 reporting.
  Task      870 on host nid004187 reporting.
  Task      871 on host nid004187 reporting.
  Task      872 on host nid004187 reporting.
  Task      873 on host nid004187 reporting.
  Task      874 on host nid004187 reporting.
  Task      875 on host nid004187 reporting.
  Task      876 on host nid004187 reporting.
  Task      877 on host nid004187 reporting.
  Task      878 on host nid004187 reporting.
  Task      879 on host nid004187 reporting.
  Task      880 on host nid004187 reporting.
  Task      881 on host nid004187 reporting.
  Task      882 on host nid004187 reporting.
  Task      883 on host nid004187 reporting.
  Task      884 on host nid004187 reporting.
  Task      885 on host nid004187 reporting.
  Task      886 on host nid004187 reporting.
  Task      887 on host nid004187 reporting.
  Task      888 on host nid004187 reporting.
  Task      889 on host nid004187 reporting.
  Task      890 on host nid004187 reporting.
  Task      891 on host nid004187 reporting.
  Task      892 on host nid004187 reporting.
  Task      893 on host nid004187 reporting.
  Task      894 on host nid004187 reporting.
  Task      895 on host nid004187 reporting.
  Task      896 on host nid004188 reporting.
  Task      897 on host nid004188 reporting.
  Task      898 on host nid004188 reporting.
  Task      899 on host nid004188 reporting.
  Task      900 on host nid004188 reporting.
  Task      901 on host nid004188 reporting.
  Task      902 on host nid004188 reporting.
  Task      903 on host nid004188 reporting.
  Task      904 on host nid004188 reporting.
  Task      905 on host nid004188 reporting.
  Task      906 on host nid004188 reporting.
  Task      907 on host nid004188 reporting.
  Task      908 on host nid004188 reporting.
  Task      909 on host nid004188 reporting.
  Task      910 on host nid004188 reporting.
  Task      911 on host nid004188 reporting.
  Task      912 on host nid004188 reporting.
  Task      913 on host nid004188 reporting.
  Task      914 on host nid004188 reporting.
  Task      915 on host nid004188 reporting.
  Task      916 on host nid004188 reporting.
  Task      917 on host nid004188 reporting.
  Task      918 on host nid004188 reporting.
  Task      919 on host nid004188 reporting.
  Task      920 on host nid004188 reporting.
  Task      921 on host nid004188 reporting.
  Task      922 on host nid004188 reporting.
  Task      923 on host nid004188 reporting.
  Task      924 on host nid004188 reporting.
  Task      925 on host nid004188 reporting.
  Task      926 on host nid004188 reporting.
  Task      927 on host nid004188 reporting.
  Task      928 on host nid004188 reporting.
  Task      929 on host nid004188 reporting.
  Task      930 on host nid004188 reporting.
  Task      931 on host nid004188 reporting.
  Task      932 on host nid004188 reporting.
  Task      933 on host nid004188 reporting.
  Task      934 on host nid004188 reporting.
  Task      935 on host nid004188 reporting.
  Task      936 on host nid004188 reporting.
  Task      937 on host nid004188 reporting.
  Task      938 on host nid004188 reporting.
  Task      939 on host nid004188 reporting.
  Task      940 on host nid004188 reporting.
  Task      941 on host nid004188 reporting.
  Task      942 on host nid004188 reporting.
  Task      943 on host nid004188 reporting.
  Task      944 on host nid004188 reporting.
  Task      945 on host nid004188 reporting.
  Task      946 on host nid004188 reporting.
  Task      947 on host nid004188 reporting.
  Task      948 on host nid004188 reporting.
  Task      949 on host nid004188 reporting.
  Task      950 on host nid004188 reporting.
  Task      951 on host nid004188 reporting.
  Task      952 on host nid004188 reporting.
  Task      953 on host nid004188 reporting.
  Task      954 on host nid004188 reporting.
  Task      955 on host nid004188 reporting.
  Task      956 on host nid004188 reporting.
  Task      957 on host nid004188 reporting.
  Task      958 on host nid004188 reporting.
  Task      959 on host nid004188 reporting.
  Task      960 on host nid004845 reporting.
  Task      961 on host nid004845 reporting.
  Task      962 on host nid004845 reporting.
  Task      963 on host nid004845 reporting.
  Task      964 on host nid004845 reporting.
  Task      965 on host nid004845 reporting.
  Task      966 on host nid004845 reporting.
  Task      967 on host nid004845 reporting.
  Task      968 on host nid004845 reporting.
  Task      969 on host nid004845 reporting.
  Task      970 on host nid004845 reporting.
  Task      971 on host nid004845 reporting.
  Task      972 on host nid004845 reporting.
  Task      973 on host nid004845 reporting.
  Task      974 on host nid004845 reporting.
  Task      975 on host nid004845 reporting.
  Task      976 on host nid004845 reporting.
  Task      977 on host nid004845 reporting.
  Task      978 on host nid004845 reporting.
  Task      979 on host nid004845 reporting.
  Task      980 on host nid004845 reporting.
  Task      981 on host nid004845 reporting.
  Task      982 on host nid004845 reporting.
  Task      983 on host nid004845 reporting.
  Task      984 on host nid004845 reporting.
  Task      985 on host nid004845 reporting.
  Task      986 on host nid004845 reporting.
  Task      987 on host nid004845 reporting.
  Task      988 on host nid004845 reporting.
  Task      989 on host nid004845 reporting.
  Task      990 on host nid004845 reporting.
  Task      991 on host nid004845 reporting.
  Task      992 on host nid004845 reporting.
  Task      993 on host nid004845 reporting.
  Task      994 on host nid004845 reporting.
  Task      995 on host nid004845 reporting.
  Task      996 on host nid004845 reporting.
  Task      997 on host nid004845 reporting.
  Task      998 on host nid004845 reporting.
  Task      999 on host nid004845 reporting.
  Task     1000 on host nid004845 reporting.
  Task     1001 on host nid004845 reporting.
  Task     1002 on host nid004845 reporting.
  Task     1003 on host nid004845 reporting.
  Task     1004 on host nid004845 reporting.
  Task     1005 on host nid004845 reporting.
  Task     1006 on host nid004845 reporting.
  Task     1007 on host nid004845 reporting.
  Task     1008 on host nid004845 reporting.
  Task     1009 on host nid004845 reporting.
  Task     1010 on host nid004845 reporting.
  Task     1011 on host nid004845 reporting.
  Task     1012 on host nid004845 reporting.
  Task     1013 on host nid004845 reporting.
  Task     1014 on host nid004845 reporting.
  Task     1015 on host nid004845 reporting.
  Task     1016 on host nid004845 reporting.
  Task     1017 on host nid004845 reporting.
  Task     1018 on host nid004845 reporting.
  Task     1019 on host nid004845 reporting.
  Task     1020 on host nid004845 reporting.
  Task     1021 on host nid004845 reporting.
  Task     1022 on host nid004845 reporting.
  Task     1023 on host nid004845 reporting.
  Task     1024 on host nid004846 reporting.
  Task     1025 on host nid004846 reporting.
  Task     1026 on host nid004846 reporting.
  Task     1027 on host nid004846 reporting.
  Task     1028 on host nid004846 reporting.
  Task     1029 on host nid004846 reporting.
  Task     1030 on host nid004846 reporting.
  Task     1031 on host nid004846 reporting.
  Task     1032 on host nid004846 reporting.
  Task     1033 on host nid004846 reporting.
  Task     1034 on host nid004846 reporting.
  Task     1035 on host nid004846 reporting.
  Task     1036 on host nid004846 reporting.
  Task     1037 on host nid004846 reporting.
  Task     1038 on host nid004846 reporting.
  Task     1039 on host nid004846 reporting.
  Task     1040 on host nid004846 reporting.
  Task     1041 on host nid004846 reporting.
  Task     1042 on host nid004846 reporting.
  Task     1043 on host nid004846 reporting.
  Task     1044 on host nid004846 reporting.
  Task     1045 on host nid004846 reporting.
  Task     1046 on host nid004846 reporting.
  Task     1047 on host nid004846 reporting.
  Task     1048 on host nid004846 reporting.
  Task     1049 on host nid004846 reporting.
  Task     1050 on host nid004846 reporting.
  Task     1051 on host nid004846 reporting.
  Task     1052 on host nid004846 reporting.
  Task     1053 on host nid004846 reporting.
  Task     1054 on host nid004846 reporting.
  Task     1055 on host nid004846 reporting.
  Task     1056 on host nid004846 reporting.
  Task     1057 on host nid004846 reporting.
  Task     1058 on host nid004846 reporting.
  Task     1059 on host nid004846 reporting.
  Task     1060 on host nid004846 reporting.
  Task     1061 on host nid004846 reporting.
  Task     1062 on host nid004846 reporting.
  Task     1063 on host nid004846 reporting.
  Task     1064 on host nid004846 reporting.
  Task     1065 on host nid004846 reporting.
  Task     1066 on host nid004846 reporting.
  Task     1067 on host nid004846 reporting.
  Task     1068 on host nid004846 reporting.
  Task     1069 on host nid004846 reporting.
  Task     1070 on host nid004846 reporting.
  Task     1071 on host nid004846 reporting.
  Task     1072 on host nid004846 reporting.
  Task     1073 on host nid004846 reporting.
  Task     1074 on host nid004846 reporting.
  Task     1075 on host nid004846 reporting.
  Task     1076 on host nid004846 reporting.
  Task     1077 on host nid004846 reporting.
  Task     1078 on host nid004846 reporting.
  Task     1079 on host nid004846 reporting.
  Task     1080 on host nid004846 reporting.
  Task     1081 on host nid004846 reporting.
  Task     1082 on host nid004846 reporting.
  Task     1083 on host nid004846 reporting.
  Task     1084 on host nid004846 reporting.
  Task     1085 on host nid004846 reporting.
  Task     1086 on host nid004846 reporting.
  Task     1087 on host nid004846 reporting.
  Task     1088 on host nid004847 reporting.
  Task     1089 on host nid004847 reporting.
  Task     1090 on host nid004847 reporting.
  Task     1091 on host nid004847 reporting.
  Task     1092 on host nid004847 reporting.
  Task     1093 on host nid004847 reporting.
  Task     1094 on host nid004847 reporting.
  Task     1095 on host nid004847 reporting.
  Task     1096 on host nid004847 reporting.
  Task     1097 on host nid004847 reporting.
  Task     1098 on host nid004847 reporting.
  Task     1099 on host nid004847 reporting.
  Task     1100 on host nid004847 reporting.
  Task     1101 on host nid004847 reporting.
  Task     1102 on host nid004847 reporting.
  Task     1103 on host nid004847 reporting.
  Task     1104 on host nid004847 reporting.
  Task     1105 on host nid004847 reporting.
  Task     1106 on host nid004847 reporting.
  Task     1107 on host nid004847 reporting.
  Task     1108 on host nid004847 reporting.
  Task     1109 on host nid004847 reporting.
  Task     1110 on host nid004847 reporting.
  Task     1111 on host nid004847 reporting.
  Task     1112 on host nid004847 reporting.
  Task     1113 on host nid004847 reporting.
  Task     1114 on host nid004847 reporting.
  Task     1115 on host nid004847 reporting.
  Task     1116 on host nid004847 reporting.
  Task     1117 on host nid004847 reporting.
  Task     1118 on host nid004847 reporting.
  Task     1119 on host nid004847 reporting.
  Task     1120 on host nid004847 reporting.
  Task     1121 on host nid004847 reporting.
  Task     1122 on host nid004847 reporting.
  Task     1123 on host nid004847 reporting.
  Task     1124 on host nid004847 reporting.
  Task     1125 on host nid004847 reporting.
  Task     1126 on host nid004847 reporting.
  Task     1127 on host nid004847 reporting.
  Task     1128 on host nid004847 reporting.
  Task     1129 on host nid004847 reporting.
  Task     1130 on host nid004847 reporting.
  Task     1131 on host nid004847 reporting.
  Task     1132 on host nid004847 reporting.
  Task     1133 on host nid004847 reporting.
  Task     1134 on host nid004847 reporting.
  Task     1135 on host nid004847 reporting.
  Task     1136 on host nid004847 reporting.
  Task     1137 on host nid004847 reporting.
  Task     1138 on host nid004847 reporting.
  Task     1139 on host nid004847 reporting.
  Task     1140 on host nid004847 reporting.
  Task     1141 on host nid004847 reporting.
  Task     1142 on host nid004847 reporting.
  Task     1143 on host nid004847 reporting.
  Task     1144 on host nid004847 reporting.
  Task     1145 on host nid004847 reporting.
  Task     1146 on host nid004847 reporting.
  Task     1147 on host nid004847 reporting.
  Task     1148 on host nid004847 reporting.
  Task     1149 on host nid004847 reporting.
  Task     1150 on host nid004847 reporting.
  Task     1151 on host nid004847 reporting.
  Task     1152 on host nid004848 reporting.
  Task     1153 on host nid004848 reporting.
  Task     1154 on host nid004848 reporting.
  Task     1155 on host nid004848 reporting.
  Task     1156 on host nid004848 reporting.
  Task     1157 on host nid004848 reporting.
  Task     1158 on host nid004848 reporting.
  Task     1159 on host nid004848 reporting.
  Task     1160 on host nid004848 reporting.
  Task     1161 on host nid004848 reporting.
  Task     1162 on host nid004848 reporting.
  Task     1163 on host nid004848 reporting.
  Task     1164 on host nid004848 reporting.
  Task     1165 on host nid004848 reporting.
  Task     1166 on host nid004848 reporting.
  Task     1167 on host nid004848 reporting.
  Task     1168 on host nid004848 reporting.
  Task     1169 on host nid004848 reporting.
  Task     1170 on host nid004848 reporting.
  Task     1171 on host nid004848 reporting.
  Task     1172 on host nid004848 reporting.
  Task     1173 on host nid004848 reporting.
  Task     1174 on host nid004848 reporting.
  Task     1175 on host nid004848 reporting.
  Task     1176 on host nid004848 reporting.
  Task     1177 on host nid004848 reporting.
  Task     1178 on host nid004848 reporting.
  Task     1179 on host nid004848 reporting.
  Task     1180 on host nid004848 reporting.
  Task     1181 on host nid004848 reporting.
  Task     1182 on host nid004848 reporting.
  Task     1183 on host nid004848 reporting.
  Task     1184 on host nid004848 reporting.
  Task     1185 on host nid004848 reporting.
  Task     1186 on host nid004848 reporting.
  Task     1187 on host nid004848 reporting.
  Task     1188 on host nid004848 reporting.
  Task     1189 on host nid004848 reporting.
  Task     1190 on host nid004848 reporting.
  Task     1191 on host nid004848 reporting.
  Task     1192 on host nid004848 reporting.
  Task     1193 on host nid004848 reporting.
  Task     1194 on host nid004848 reporting.
  Task     1195 on host nid004848 reporting.
  Task     1196 on host nid004848 reporting.
  Task     1197 on host nid004848 reporting.
  Task     1198 on host nid004848 reporting.
  Task     1199 on host nid004848 reporting.
  Task     1200 on host nid004848 reporting.
  Task     1201 on host nid004848 reporting.
  Task     1202 on host nid004848 reporting.
  Task     1203 on host nid004848 reporting.
  Task     1204 on host nid004848 reporting.
  Task     1205 on host nid004848 reporting.
  Task     1206 on host nid004848 reporting.
  Task     1207 on host nid004848 reporting.
  Task     1208 on host nid004848 reporting.
  Task     1209 on host nid004848 reporting.
  Task     1210 on host nid004848 reporting.
  Task     1211 on host nid004848 reporting.
  Task     1212 on host nid004848 reporting.
  Task     1213 on host nid004848 reporting.
  Task     1214 on host nid004848 reporting.
  Task     1215 on host nid004848 reporting.
  Task     1216 on host nid004849 reporting.
  Task     1217 on host nid004849 reporting.
  Task     1218 on host nid004849 reporting.
  Task     1219 on host nid004849 reporting.
  Task     1220 on host nid004849 reporting.
  Task     1221 on host nid004849 reporting.
  Task     1222 on host nid004849 reporting.
  Task     1223 on host nid004849 reporting.
  Task     1224 on host nid004849 reporting.
  Task     1225 on host nid004849 reporting.
  Task     1226 on host nid004849 reporting.
  Task     1227 on host nid004849 reporting.
  Task     1228 on host nid004849 reporting.
  Task     1229 on host nid004849 reporting.
  Task     1230 on host nid004849 reporting.
  Task     1231 on host nid004849 reporting.
  Task     1232 on host nid004849 reporting.
  Task     1233 on host nid004849 reporting.
  Task     1234 on host nid004849 reporting.
  Task     1235 on host nid004849 reporting.
  Task     1236 on host nid004849 reporting.
  Task     1237 on host nid004849 reporting.
  Task     1238 on host nid004849 reporting.
  Task     1239 on host nid004849 reporting.
  Task     1240 on host nid004849 reporting.
  Task     1241 on host nid004849 reporting.
  Task     1242 on host nid004849 reporting.
  Task     1243 on host nid004849 reporting.
  Task     1244 on host nid004849 reporting.
  Task     1245 on host nid004849 reporting.
  Task     1246 on host nid004849 reporting.
  Task     1247 on host nid004849 reporting.
  Task     1248 on host nid004849 reporting.
  Task     1249 on host nid004849 reporting.
  Task     1250 on host nid004849 reporting.
  Task     1251 on host nid004849 reporting.
  Task     1252 on host nid004849 reporting.
  Task     1253 on host nid004849 reporting.
  Task     1254 on host nid004849 reporting.
  Task     1255 on host nid004849 reporting.
  Task     1256 on host nid004849 reporting.
  Task     1257 on host nid004849 reporting.
  Task     1258 on host nid004849 reporting.
  Task     1259 on host nid004849 reporting.
  Task     1260 on host nid004849 reporting.
  Task     1261 on host nid004849 reporting.
  Task     1262 on host nid004849 reporting.
  Task     1263 on host nid004849 reporting.
  Task     1264 on host nid004849 reporting.
  Task     1265 on host nid004849 reporting.
  Task     1266 on host nid004849 reporting.
  Task     1267 on host nid004849 reporting.
  Task     1268 on host nid004849 reporting.
  Task     1269 on host nid004849 reporting.
  Task     1270 on host nid004849 reporting.
  Task     1271 on host nid004849 reporting.
  Task     1272 on host nid004849 reporting.
  Task     1273 on host nid004849 reporting.
  Task     1274 on host nid004849 reporting.
  Task     1275 on host nid004849 reporting.
  Task     1276 on host nid004849 reporting.
  Task     1277 on host nid004849 reporting.
  Task     1278 on host nid004849 reporting.
  Task     1279 on host nid004849 reporting.
  Task     1280 on host nid004850 reporting.
  Task     1281 on host nid004850 reporting.
  Task     1282 on host nid004850 reporting.
  Task     1283 on host nid004850 reporting.
  Task     1284 on host nid004850 reporting.
  Task     1285 on host nid004850 reporting.
  Task     1286 on host nid004850 reporting.
  Task     1287 on host nid004850 reporting.
  Task     1288 on host nid004850 reporting.
  Task     1289 on host nid004850 reporting.
  Task     1290 on host nid004850 reporting.
  Task     1291 on host nid004850 reporting.
  Task     1292 on host nid004850 reporting.
  Task     1293 on host nid004850 reporting.
  Task     1294 on host nid004850 reporting.
  Task     1295 on host nid004850 reporting.
  Task     1296 on host nid004850 reporting.
  Task     1297 on host nid004850 reporting.
  Task     1298 on host nid004850 reporting.
  Task     1299 on host nid004850 reporting.
  Task     1300 on host nid004850 reporting.
  Task     1301 on host nid004850 reporting.
  Task     1302 on host nid004850 reporting.
  Task     1303 on host nid004850 reporting.
  Task     1304 on host nid004850 reporting.
  Task     1305 on host nid004850 reporting.
  Task     1306 on host nid004850 reporting.
  Task     1307 on host nid004850 reporting.
  Task     1308 on host nid004850 reporting.
  Task     1309 on host nid004850 reporting.
  Task     1310 on host nid004850 reporting.
  Task     1311 on host nid004850 reporting.
  Task     1312 on host nid004850 reporting.
  Task     1313 on host nid004850 reporting.
  Task     1314 on host nid004850 reporting.
  Task     1315 on host nid004850 reporting.
  Task     1316 on host nid004850 reporting.
  Task     1317 on host nid004850 reporting.
  Task     1318 on host nid004850 reporting.
  Task     1319 on host nid004850 reporting.
  Task     1320 on host nid004850 reporting.
  Task     1321 on host nid004850 reporting.
  Task     1322 on host nid004850 reporting.
  Task     1323 on host nid004850 reporting.
  Task     1324 on host nid004850 reporting.
  Task     1325 on host nid004850 reporting.
  Task     1326 on host nid004850 reporting.
  Task     1327 on host nid004850 reporting.
  Task     1328 on host nid004850 reporting.
  Task     1329 on host nid004850 reporting.
  Task     1330 on host nid004850 reporting.
  Task     1331 on host nid004850 reporting.
  Task     1332 on host nid004850 reporting.
  Task     1333 on host nid004850 reporting.
  Task     1334 on host nid004850 reporting.
  Task     1335 on host nid004850 reporting.
  Task     1336 on host nid004850 reporting.
  Task     1337 on host nid004850 reporting.
  Task     1338 on host nid004850 reporting.
  Task     1339 on host nid004850 reporting.
  Task     1340 on host nid004850 reporting.
  Task     1341 on host nid004850 reporting.
  Task     1342 on host nid004850 reporting.
  Task     1343 on host nid004850 reporting.
  Task     1344 on host nid004851 reporting.
  Task     1345 on host nid004851 reporting.
  Task     1346 on host nid004851 reporting.
  Task     1347 on host nid004851 reporting.
  Task     1348 on host nid004851 reporting.
  Task     1349 on host nid004851 reporting.
  Task     1350 on host nid004851 reporting.
  Task     1351 on host nid004851 reporting.
  Task     1352 on host nid004851 reporting.
  Task     1353 on host nid004851 reporting.
  Task     1354 on host nid004851 reporting.
  Task     1355 on host nid004851 reporting.
  Task     1356 on host nid004851 reporting.
  Task     1357 on host nid004851 reporting.
  Task     1358 on host nid004851 reporting.
  Task     1359 on host nid004851 reporting.
  Task     1360 on host nid004851 reporting.
  Task     1361 on host nid004851 reporting.
  Task     1362 on host nid004851 reporting.
  Task     1363 on host nid004851 reporting.
  Task     1364 on host nid004851 reporting.
  Task     1365 on host nid004851 reporting.
  Task     1366 on host nid004851 reporting.
  Task     1367 on host nid004851 reporting.
  Task     1368 on host nid004851 reporting.
  Task     1369 on host nid004851 reporting.
  Task     1370 on host nid004851 reporting.
  Task     1371 on host nid004851 reporting.
  Task     1372 on host nid004851 reporting.
  Task     1373 on host nid004851 reporting.
  Task     1374 on host nid004851 reporting.
  Task     1375 on host nid004851 reporting.
  Task     1376 on host nid004851 reporting.
  Task     1377 on host nid004851 reporting.
  Task     1378 on host nid004851 reporting.
  Task     1379 on host nid004851 reporting.
  Task     1380 on host nid004851 reporting.
  Task     1381 on host nid004851 reporting.
  Task     1382 on host nid004851 reporting.
  Task     1383 on host nid004851 reporting.
  Task     1384 on host nid004851 reporting.
  Task     1385 on host nid004851 reporting.
  Task     1386 on host nid004851 reporting.
  Task     1387 on host nid004851 reporting.
  Task     1388 on host nid004851 reporting.
  Task     1389 on host nid004851 reporting.
  Task     1390 on host nid004851 reporting.
  Task     1391 on host nid004851 reporting.
  Task     1392 on host nid004851 reporting.
  Task     1393 on host nid004851 reporting.
  Task     1394 on host nid004851 reporting.
  Task     1395 on host nid004851 reporting.
  Task     1396 on host nid004851 reporting.
  Task     1397 on host nid004851 reporting.
  Task     1398 on host nid004851 reporting.
  Task     1399 on host nid004851 reporting.
  Task     1400 on host nid004851 reporting.
  Task     1401 on host nid004851 reporting.
  Task     1402 on host nid004851 reporting.
  Task     1403 on host nid004851 reporting.
  Task     1404 on host nid004851 reporting.
  Task     1405 on host nid004851 reporting.
  Task     1406 on host nid004851 reporting.
  Task     1407 on host nid004851 reporting.
  Task     1408 on host nid004852 reporting.
  Task     1409 on host nid004852 reporting.
  Task     1410 on host nid004852 reporting.
  Task     1411 on host nid004852 reporting.
  Task     1412 on host nid004852 reporting.
  Task     1413 on host nid004852 reporting.
  Task     1414 on host nid004852 reporting.
  Task     1415 on host nid004852 reporting.
  Task     1416 on host nid004852 reporting.
  Task     1417 on host nid004852 reporting.
  Task     1418 on host nid004852 reporting.
  Task     1419 on host nid004852 reporting.
  Task     1420 on host nid004852 reporting.
  Task     1421 on host nid004852 reporting.
  Task     1422 on host nid004852 reporting.
  Task     1423 on host nid004852 reporting.
  Task     1424 on host nid004852 reporting.
  Task     1425 on host nid004852 reporting.
  Task     1426 on host nid004852 reporting.
  Task     1427 on host nid004852 reporting.
  Task     1428 on host nid004852 reporting.
  Task     1429 on host nid004852 reporting.
  Task     1430 on host nid004852 reporting.
  Task     1431 on host nid004852 reporting.
  Task     1432 on host nid004852 reporting.
  Task     1433 on host nid004852 reporting.
  Task     1434 on host nid004852 reporting.
  Task     1435 on host nid004852 reporting.
  Task     1436 on host nid004852 reporting.
  Task     1437 on host nid004852 reporting.
  Task     1438 on host nid004852 reporting.
  Task     1439 on host nid004852 reporting.
  Task     1440 on host nid004852 reporting.
  Task     1441 on host nid004852 reporting.
  Task     1442 on host nid004852 reporting.
  Task     1443 on host nid004852 reporting.
  Task     1444 on host nid004852 reporting.
  Task     1445 on host nid004852 reporting.
  Task     1446 on host nid004852 reporting.
  Task     1447 on host nid004852 reporting.
  Task     1448 on host nid004852 reporting.
  Task     1449 on host nid004852 reporting.
  Task     1450 on host nid004852 reporting.
  Task     1451 on host nid004852 reporting.
  Task     1452 on host nid004852 reporting.
  Task     1453 on host nid004852 reporting.
  Task     1454 on host nid004852 reporting.
  Task     1455 on host nid004852 reporting.
  Task     1456 on host nid004852 reporting.
  Task     1457 on host nid004852 reporting.
  Task     1458 on host nid004852 reporting.
  Task     1459 on host nid004852 reporting.
  Task     1460 on host nid004852 reporting.
  Task     1461 on host nid004852 reporting.
  Task     1462 on host nid004852 reporting.
  Task     1463 on host nid004852 reporting.
  Task     1464 on host nid004852 reporting.
  Task     1465 on host nid004852 reporting.
  Task     1466 on host nid004852 reporting.
  Task     1467 on host nid004852 reporting.
  Task     1468 on host nid004852 reporting.
  Task     1469 on host nid004852 reporting.
  Task     1470 on host nid004852 reporting.
  Task     1471 on host nid004852 reporting.
  Task     1472 on host nid004853 reporting.
  Task     1473 on host nid004853 reporting.
  Task     1474 on host nid004853 reporting.
  Task     1475 on host nid004853 reporting.
  Task     1476 on host nid004853 reporting.
  Task     1477 on host nid004853 reporting.
  Task     1478 on host nid004853 reporting.
  Task     1479 on host nid004853 reporting.
  Task     1480 on host nid004853 reporting.
  Task     1481 on host nid004853 reporting.
  Task     1482 on host nid004853 reporting.
  Task     1483 on host nid004853 reporting.
  Task     1484 on host nid004853 reporting.
  Task     1485 on host nid004853 reporting.
  Task     1486 on host nid004853 reporting.
  Task     1487 on host nid004853 reporting.
  Task     1488 on host nid004853 reporting.
  Task     1489 on host nid004853 reporting.
  Task     1490 on host nid004853 reporting.
  Task     1491 on host nid004853 reporting.
  Task     1492 on host nid004853 reporting.
  Task     1493 on host nid004853 reporting.
  Task     1494 on host nid004853 reporting.
  Task     1495 on host nid004853 reporting.
  Task     1496 on host nid004853 reporting.
  Task     1497 on host nid004853 reporting.
  Task     1498 on host nid004853 reporting.
  Task     1499 on host nid004853 reporting.
  Task     1500 on host nid004853 reporting.
  Task     1501 on host nid004853 reporting.
  Task     1502 on host nid004853 reporting.
  Task     1503 on host nid004853 reporting.
  Task     1504 on host nid004853 reporting.
  Task     1505 on host nid004853 reporting.
  Task     1506 on host nid004853 reporting.
  Task     1507 on host nid004853 reporting.
  Task     1508 on host nid004853 reporting.
  Task     1509 on host nid004853 reporting.
  Task     1510 on host nid004853 reporting.
  Task     1511 on host nid004853 reporting.
  Task     1512 on host nid004853 reporting.
  Task     1513 on host nid004853 reporting.
  Task     1514 on host nid004853 reporting.
  Task     1515 on host nid004853 reporting.
  Task     1516 on host nid004853 reporting.
  Task     1517 on host nid004853 reporting.
  Task     1518 on host nid004853 reporting.
  Task     1519 on host nid004853 reporting.
  Task     1520 on host nid004853 reporting.
  Task     1521 on host nid004853 reporting.
  Task     1522 on host nid004853 reporting.
  Task     1523 on host nid004853 reporting.
  Task     1524 on host nid004853 reporting.
  Task     1525 on host nid004853 reporting.
  Task     1526 on host nid004853 reporting.
  Task     1527 on host nid004853 reporting.
  Task     1528 on host nid004853 reporting.
  Task     1529 on host nid004853 reporting.
  Task     1530 on host nid004853 reporting.
  Task     1531 on host nid004853 reporting.
  Task     1532 on host nid004853 reporting.
  Task     1533 on host nid004853 reporting.
  Task     1534 on host nid004853 reporting.
  Task     1535 on host nid004853 reporting.
  Task     1536 on host nid004854 reporting.
  Task     1537 on host nid004854 reporting.
  Task     1538 on host nid004854 reporting.
  Task     1539 on host nid004854 reporting.
  Task     1540 on host nid004854 reporting.
  Task     1541 on host nid004854 reporting.
  Task     1542 on host nid004854 reporting.
  Task     1543 on host nid004854 reporting.
  Task     1544 on host nid004854 reporting.
  Task     1545 on host nid004854 reporting.
  Task     1546 on host nid004854 reporting.
  Task     1547 on host nid004854 reporting.
  Task     1548 on host nid004854 reporting.
  Task     1549 on host nid004854 reporting.
  Task     1550 on host nid004854 reporting.
  Task     1551 on host nid004854 reporting.
  Task     1552 on host nid004854 reporting.
  Task     1553 on host nid004854 reporting.
  Task     1554 on host nid004854 reporting.
  Task     1555 on host nid004854 reporting.
  Task     1556 on host nid004854 reporting.
  Task     1557 on host nid004854 reporting.
  Task     1558 on host nid004854 reporting.
  Task     1559 on host nid004854 reporting.
  Task     1560 on host nid004854 reporting.
  Task     1561 on host nid004854 reporting.
  Task     1562 on host nid004854 reporting.
  Task     1563 on host nid004854 reporting.
  Task     1564 on host nid004854 reporting.
  Task     1565 on host nid004854 reporting.
  Task     1566 on host nid004854 reporting.
  Task     1567 on host nid004854 reporting.
  Task     1568 on host nid004854 reporting.
  Task     1569 on host nid004854 reporting.
  Task     1570 on host nid004854 reporting.
  Task     1571 on host nid004854 reporting.
  Task     1572 on host nid004854 reporting.
  Task     1573 on host nid004854 reporting.
  Task     1574 on host nid004854 reporting.
  Task     1575 on host nid004854 reporting.
  Task     1576 on host nid004854 reporting.
  Task     1577 on host nid004854 reporting.
  Task     1578 on host nid004854 reporting.
  Task     1579 on host nid004854 reporting.
  Task     1580 on host nid004854 reporting.
  Task     1581 on host nid004854 reporting.
  Task     1582 on host nid004854 reporting.
  Task     1583 on host nid004854 reporting.
  Task     1584 on host nid004854 reporting.
  Task     1585 on host nid004854 reporting.
  Task     1586 on host nid004854 reporting.
  Task     1587 on host nid004854 reporting.
  Task     1588 on host nid004854 reporting.
  Task     1589 on host nid004854 reporting.
  Task     1590 on host nid004854 reporting.
  Task     1591 on host nid004854 reporting.
  Task     1592 on host nid004854 reporting.
  Task     1593 on host nid004854 reporting.
  Task     1594 on host nid004854 reporting.
  Task     1595 on host nid004854 reporting.
  Task     1596 on host nid004854 reporting.
  Task     1597 on host nid004854 reporting.
  Task     1598 on host nid004854 reporting.
  Task     1599 on host nid004854 reporting.
  Task     1600 on host nid004855 reporting.
  Task     1601 on host nid004855 reporting.
  Task     1602 on host nid004855 reporting.
  Task     1603 on host nid004855 reporting.
  Task     1604 on host nid004855 reporting.
  Task     1605 on host nid004855 reporting.
  Task     1606 on host nid004855 reporting.
  Task     1607 on host nid004855 reporting.
  Task     1608 on host nid004855 reporting.
  Task     1609 on host nid004855 reporting.
  Task     1610 on host nid004855 reporting.
  Task     1611 on host nid004855 reporting.
  Task     1612 on host nid004855 reporting.
  Task     1613 on host nid004855 reporting.
  Task     1614 on host nid004855 reporting.
  Task     1615 on host nid004855 reporting.
  Task     1616 on host nid004855 reporting.
  Task     1617 on host nid004855 reporting.
  Task     1618 on host nid004855 reporting.
  Task     1619 on host nid004855 reporting.
  Task     1620 on host nid004855 reporting.
  Task     1621 on host nid004855 reporting.
  Task     1622 on host nid004855 reporting.
  Task     1623 on host nid004855 reporting.
  Task     1624 on host nid004855 reporting.
  Task     1625 on host nid004855 reporting.
  Task     1626 on host nid004855 reporting.
  Task     1627 on host nid004855 reporting.
  Task     1628 on host nid004855 reporting.
  Task     1629 on host nid004855 reporting.
  Task     1630 on host nid004855 reporting.
  Task     1631 on host nid004855 reporting.
  Task     1632 on host nid004855 reporting.
  Task     1633 on host nid004855 reporting.
  Task     1634 on host nid004855 reporting.
  Task     1635 on host nid004855 reporting.
  Task     1636 on host nid004855 reporting.
  Task     1637 on host nid004855 reporting.
  Task     1638 on host nid004855 reporting.
  Task     1639 on host nid004855 reporting.
  Task     1640 on host nid004855 reporting.
  Task     1641 on host nid004855 reporting.
  Task     1642 on host nid004855 reporting.
  Task     1643 on host nid004855 reporting.
  Task     1644 on host nid004855 reporting.
  Task     1645 on host nid004855 reporting.
  Task     1646 on host nid004855 reporting.
  Task     1647 on host nid004855 reporting.
  Task     1648 on host nid004855 reporting.
  Task     1649 on host nid004855 reporting.
  Task     1650 on host nid004855 reporting.
  Task     1651 on host nid004855 reporting.
  Task     1652 on host nid004855 reporting.
  Task     1653 on host nid004855 reporting.
  Task     1654 on host nid004855 reporting.
  Task     1655 on host nid004855 reporting.
  Task     1656 on host nid004855 reporting.
  Task     1657 on host nid004855 reporting.
  Task     1658 on host nid004855 reporting.
  Task     1659 on host nid004855 reporting.
  Task     1660 on host nid004855 reporting.
  Task     1661 on host nid004855 reporting.
  Task     1662 on host nid004855 reporting.
  Task     1663 on host nid004855 reporting.
  Task     1664 on host nid004857 reporting.
  Task     1665 on host nid004857 reporting.
  Task     1666 on host nid004857 reporting.
  Task     1667 on host nid004857 reporting.
  Task     1668 on host nid004857 reporting.
  Task     1669 on host nid004857 reporting.
  Task     1670 on host nid004857 reporting.
  Task     1671 on host nid004857 reporting.
  Task     1672 on host nid004857 reporting.
  Task     1673 on host nid004857 reporting.
  Task     1674 on host nid004857 reporting.
  Task     1675 on host nid004857 reporting.
  Task     1676 on host nid004857 reporting.
  Task     1677 on host nid004857 reporting.
  Task     1678 on host nid004857 reporting.
  Task     1679 on host nid004857 reporting.
  Task     1680 on host nid004857 reporting.
  Task     1681 on host nid004857 reporting.
  Task     1682 on host nid004857 reporting.
  Task     1683 on host nid004857 reporting.
  Task     1684 on host nid004857 reporting.
  Task     1685 on host nid004857 reporting.
  Task     1686 on host nid004857 reporting.
  Task     1687 on host nid004857 reporting.
  Task     1688 on host nid004857 reporting.
  Task     1689 on host nid004857 reporting.
  Task     1690 on host nid004857 reporting.
  Task     1691 on host nid004857 reporting.
  Task     1692 on host nid004857 reporting.
  Task     1693 on host nid004857 reporting.
  Task     1694 on host nid004857 reporting.
  Task     1695 on host nid004857 reporting.
  Task     1696 on host nid004857 reporting.
  Task     1697 on host nid004857 reporting.
  Task     1698 on host nid004857 reporting.
  Task     1699 on host nid004857 reporting.
  Task     1700 on host nid004857 reporting.
  Task     1701 on host nid004857 reporting.
  Task     1702 on host nid004857 reporting.
  Task     1703 on host nid004857 reporting.
  Task     1704 on host nid004857 reporting.
  Task     1705 on host nid004857 reporting.
  Task     1706 on host nid004857 reporting.
  Task     1707 on host nid004857 reporting.
  Task     1708 on host nid004857 reporting.
  Task     1709 on host nid004857 reporting.
  Task     1710 on host nid004857 reporting.
  Task     1711 on host nid004857 reporting.
  Task     1712 on host nid004857 reporting.
  Task     1713 on host nid004857 reporting.
  Task     1714 on host nid004857 reporting.
  Task     1715 on host nid004857 reporting.
  Task     1716 on host nid004857 reporting.
  Task     1717 on host nid004857 reporting.
  Task     1718 on host nid004857 reporting.
  Task     1719 on host nid004857 reporting.
  Task     1720 on host nid004857 reporting.
  Task     1721 on host nid004857 reporting.
[...]
  |   83          0.164782079517662E-03          0.948808686231308E-05          0.783238881181207E-03
  |   84          0.269760193399113E-03          0.392798596292078E-03          0.542212721870550E-03
  |   85          0.153566397354321E-04          0.102865236260873E-03          0.771633412557136E-03
  |   86          0.797240287045739E-04          0.604127313456295E-04          0.840641015462499E-03
  |   87          0.875342646376351E-04          0.135102065299058E-03          0.942758860039827E-03
  |   88          0.606195699538173E-04          0.156519641157726E-03          0.928803670038818E-03
  |   89         -0.580391570877722E-05          0.779472040694504E-04          0.844493537672336E-03
  |   90          0.209974010558368E-04          0.125937806898244E-03          0.878026094765967E-03
  |   91          0.753334105376889E-04          0.145247309733637E-03          0.931259088353735E-03
  |   92          0.607499898430136E-04          0.104883396705756E-03          0.911311934143087E-03
  |   93          0.129578464742656E-03         -0.199944540636208E-04         -0.721387701321521E-03
  |   94         -0.451701738856908E-04          0.285257492946482E-03          0.392308239932710E-03
  |   95          0.134780030812324E-03          0.173667414460848E-03          0.937125602601373E-03
  |   96          0.786402898383756E-04          0.253894994646517E-04          0.807365446878276E-03
  |   97          0.460082917497318E-02         -0.315001932175175E-01          0.226984508379353E-01
  |   98         -0.737138142137152E-05          0.415484526103432E-02         -0.954363212180033E-03
  |   99          0.124071979476801E-03          0.912338818927604E-03         -0.800210820550159E-03
  |  100         -0.302616583743830E-05          0.176363027372571E-02         -0.142579219972491E-02
  |  101          0.419594634841575E-04         -0.764185133786486E-03         -0.567901323067703E-03
  |  102          0.217144048779162E-03          0.101638473138025E-03         -0.871141572114835E-03
  |  103          0.925896148531395E-04          0.302039729077771E-03         -0.937120083148702E-03
  |  104         -0.360321006089283E-03          0.703695594683437E-03         -0.871312969806590E-03
  |  105         -0.148789075482249E-04         -0.542208470755790E-04         -0.960777269825359E-03
  |  106         -0.831167584864326E-06          0.335584450552790E-04         -0.945359712007613E-03
  |  107          0.867870249849260E-05          0.220937093683826E-03         -0.950035129212431E-03
  |  108         -0.126325218727666E-05         -0.190533116289013E-04         -0.956188968593112E-03
  |  109         -0.311169366438523E-03         -0.754223992929523E-03         -0.495113557628251E-03
  |  110         -0.368214486512297E-03          0.709205010916590E-03         -0.866840382732887E-03
  |  111          0.424100331605168E-04          0.295221285667696E-03         -0.928891677708223E-03
  |  112          0.209268265867770E-03          0.939083051553985E-04         -0.872101514417731E-03
  |  113         -0.344991322968098E-02          0.262472145874006E-02          0.489453529836283E-03
  |  114          0.147857305136650E-02         -0.458178123279175E-03          0.479205086330780E-03
  |  115          0.349419573294896E-03          0.296716351708136E-03         -0.866186802549634E-03
  |  116          0.100645912808276E-03          0.298668783714773E-03         -0.888659024437900E-03
  |  117         -0.300635816591315E-03          0.640776100849368E-04         -0.921024181605314E-03
  |  118         -0.422319276530187E-04          0.214200212355978E-05         -0.876589924179118E-03
  |  119          0.260943923927324E-04          0.168252782262043E-03         -0.929936610140721E-03
  |  120         -0.254967032009805E-03          0.253379611058820E-03         -0.936008456126609E-03
  |  121         -0.141290521628835E-03         -0.183576554961176E-04         -0.900827143125810E-03
  |  122         -0.382971521464697E-03          0.848385427946933E-04         -0.853299782262518E-03
  |  123         -0.258066943352952E-03          0.251967682650826E-03         -0.923436409181215E-03
  |  124          0.184208699737759E-04          0.169366275731222E-03         -0.932176902196622E-03
  |  125          0.166696044426799E-02          0.211464346245743E-03          0.378350113767862E-03
  |  126         -0.329337312119601E-02          0.197301980387836E-02          0.370335401844058E-03
  |  127         -0.793957047197965E-04          0.377593206593582E-03         -0.851620983675772E-03
  |  128          0.174181698806557E-03          0.213233904858918E-03         -0.876841518267715E-03
  |  129         -0.480668839468992E-05          0.158157233924536E-02         -0.295034801152490E-03
  |  130          0.133558396493084E-03         -0.706886404035216E-03          0.100386624796864E-03
  |  131         -0.470548232887578E-04         -0.993335426417287E-03          0.310253342796418E-03
  |  132         -0.579570462690062E-04          0.230300137748763E-03          0.925892549935029E-03
  |  133         -0.219628969530198E-03          0.109309695498763E-03          0.888251427299984E-03
  |  134         -0.578122109726309E-03         -0.202715210157845E-03          0.554706152589833E-03
  |  135         -0.157681626215044E-03         -0.135606960057332E-03          0.937128467033816E-03
  |  136         -0.150959037965193E-03          0.810848071362083E-04          0.939550595252231E-03
  |  137         -0.163850917910905E-03         -0.565910262475196E-04          0.912098765473563E-03
  |  138         -0.183843465750158E-03         -0.103393232826039E-03          0.918514930722894E-03
  |  139         -0.149986629123776E-03         -0.540248134141057E-05          0.927660605577821E-03
  |  140         -0.134113865583892E-03          0.157005221900951E-04          0.929924949795312E-03
  |  141         -0.113623746364419E-04         -0.158058954420227E-03          0.811095839578304E-03
  |  142          0.188497160136396E-03         -0.826396950507288E-04          0.559449563459392E-03
  |  143         -0.422889041955085E-04          0.599772597318801E-04          0.923438460089407E-03
  |  144         -0.412102534197686E-04          0.342884704526768E-04          0.938584483298352E-03
  |  145          0.757924810022820E-03         -0.144361937077434E-03          0.468637264357240E-03
  |  146          0.394411700405304E-03         -0.147147946359758E-03          0.763440869185776E-03
  |  147          0.142063064884231E-03         -0.710518195003717E-04          0.983727344860945E-03
  |  148          0.271284074885964E-03         -0.465848800835374E-04          0.883726099401820E-03
  |  149         -0.333620227390538E-03         -0.549309056597319E-05          0.593866588664887E-03
  |  150         -0.112752120809770E-03         -0.315624371172699E-03          0.798400387666484E-03
  |  151         -0.789041756985538E-04         -0.963558073689304E-04          0.980390361039619E-03
  |  152         -0.156535384662769E-03          0.212354793736677E-04          0.908695435761832E-03
  |  153         -0.368510272242464E-03         -0.927814680628600E-04          0.887921279381195E-03
  |  154         -0.238103534164354E-03         -0.148533144344821E-03          0.959120906641993E-03
  |  155         -0.136088483621840E-03         -0.812680376383328E-04          0.939878676969491E-03
  |  156         -0.193469924874683E-03         -0.621453278098795E-04          0.914106872282046E-03
  |  157         -0.177443856654466E-03         -0.117388426227848E-03          0.808945397621399E-03
  |  158         -0.178949482653653E-03         -0.110546634576143E-03          0.929545560031507E-03
  |  159         -0.729969922534701E-04         -0.663390979311754E-04          0.938423080417547E-03
  |  160         -0.665404881149652E-04         -0.909628839058871E-04          0.895023669444980E-03
  |  161         -0.727561780014682E-03          0.607424643206967E-02         -0.663646566581165E-03
  |  162         -0.697776998139086E-03          0.954359182413112E-02         -0.324779658330800E-02
  |  163         -0.261906457986089E-03         -0.160647198582234E-02          0.300863192594385E-03
  |  164         -0.264763276967446E-03         -0.826335415836480E-03          0.454432402601239E-03
  |  165          0.200473762639629E-02          0.243648644250919E-03          0.614431668175010E-03
  |  166         -0.731596050723872E-03          0.335365630804885E-03          0.547999006898979E-03
  |  167         -0.307899202822552E-03         -0.348192995405606E-03          0.809929533194783E-03
  |  168          0.523905583765523E-04         -0.776460860687081E-03          0.857137427797176E-03
  |  169          0.246855078202352E-03         -0.733398993758477E-05          0.920764353348350E-03
  |  170          0.238157436107280E-03         -0.224401339027914E-04          0.909083428969019E-03
  |  171          0.137225529971768E-03         -0.223394699059362E-03          0.819795971540184E-03
  |  172          0.134845947864220E-03         -0.179356719836898E-03          0.841697888685458E-03
  |  173         -0.749442869420700E-03          0.536774659727625E-03          0.512297728888272E-03
  |  174          0.199335356612299E-02          0.302458763284645E-04          0.422943030244399E-03
  |  175          0.201274074189766E-03         -0.788350764068799E-03          0.720016589619318E-03
  |  176         -0.165446509301192E-03         -0.324983971339499E-03          0.804310014307726E-03
  |  177         -0.298417162637307E-03          0.168228797538086E-04          0.425808843363846E-02
  |  178         -0.179649679212744E-03          0.824566681104904E-03          0.149613994604597E-02
  |  179         -0.553713884114399E-05          0.623204884127097E-03         -0.122369335459892E-02
  |  180         -0.424070805783952E-04         -0.129973433907749E-02         -0.754674720579310E-03
  |  181          0.614231554175985E-03         -0.783380620000009E-04         -0.661576685796103E-03
  |  182          0.373452529089409E-03          0.480415440634484E-03         -0.909294985939647E-03
  |  183          0.193195895218846E-03          0.574146652135045E-04         -0.959621165426460E-03
  |  184          0.300354801339553E-03         -0.928717150367779E-04         -0.834283194027481E-03
  |  185          0.427305922722103E-03          0.162623537733613E-03         -0.825288476439946E-03
  |  186          0.342369212716525E-03          0.109510541885156E-03         -0.859379135728079E-03
  |  187          0.194970967397974E-03          0.191345830839557E-04         -0.947673029299357E-03
  |  188          0.230803626586672E-03          0.678678688171980E-04         -0.878074982839534E-03
  |  189         -0.395502364121554E-03          0.103690861962956E-03          0.658403680619522E-04
  |  190         -0.182823972222604E-03          0.176116699969331E-03         -0.719159852261744E-03
  |  191          0.469152025376238E-05         -0.445818711242533E-04         -0.101193499462900E-02
  |  192         -0.110530917215112E-03          0.130986432643629E-03         -0.763566090578987E-03

  ------------------------------------ 
  Start decomposition of the XC Energy 
  ------------------------------------ 
  X and C from original XC functional choice 
  Hartree-Fock Energy :          0.000000000 Ha              0.000000000 eV
  X Energy            :     -15492.890860528 Ha        -421583.010222355 eV
  C Energy            :       -321.890585102 Ha          -8759.088478145 eV
  XC Energy w/o HF    :     -15814.781445630 Ha        -430342.098700501 eV
  Total XC Energy     :     -15814.781445630 Ha        -430342.098700501 eV
  ------------------------------------ 
  LDA X and C from self-consistent density 
  X Energy LDA        :     -15020.555762389 Ha        -408730.118254053 eV
  C Energy LDA        :       -517.741986832 Ha         -14088.476275468 eV
  ------------------------------------ 
  End decomposition of the XC Energy 
  ------------------------------------ 

------------------------------------------------------------

------------------------------------------------------------------------------
  Final output of selected total energy values:

  The following output summarizes some interesting total energy values
  at the end of a run (AFTER all relaxation, molecular dynamics, etc.).

  | Total energy of the DFT / Hartree-Fock s.c.f. calculation      :      -15179042.176421270 eV
  | Final zero-broadening corrected energy (caution - metals only) :      -15179042.176421270 eV
  | For reference only, the value of 1 Hartree used in FHI-aims is :             27.211384500 eV
  | For reference only, the overall average (free atom contribution
  | + realspace contribution) of the electrostatic potential after
  | s.c.f. convergence is                                          :            -16.466052644 eV

  Before relying on these values, please be sure to understand exactly which
  total energy value is referred to by a given number. Different objects may
  all carry the same name 'total energy'. Definitions:

  Total energy of the DFT / Hartree-Fock s.c.f. calculation:
  | Note that this energy does not include ANY quantities calculated after the
  | s.c.f. cycle, in particular not ANY RPA, MP2, etc. many-body perturbation terms.

  Final zero-broadening corrected energy:
  | For metallic systems only, a broadening of the occupation numbers at the Fermi
  | level can be extrapolated back to zero broadening by an electron-gas inspired
  | formula. For all systems that are not real metals, this value can be
  | meaningless and should be avoided.

------------------------------------------------------------------------------
  Methods described in the following list of references were used in this FHI-aims run.
  If you publish the results, please make sure to cite these reference if they apply.
  FHI-aims is an academic code, and for our developers (often, Ph.D. students
  and postdocs), scientific credit in the community is essential.
  Thank you for helping us!

  For any use of FHI-aims, please cite:

    Volker Blum, Ralf Gehrke, Felix Hanke, Paula Havu, Ville Havu,
    Xinguo Ren, Karsten Reuter, and Matthias Scheffler
    'Ab initio molecular simulations with numeric atom-centered orbitals'
    Computer Physics Communications 180, 2175-2196 (2009)
    http://doi.org/10.1016/j.cpc.2009.06.022


  The provided symmetry information was generated with SPGlib:

    Atsushi Togo, Yusuke Seto, Dimitar Pashov
    SPGlib 1.7.3 obtained from http://spglib.sourceforge.net
    Copyright (C) 2008 Atsushi Togo


  The ELSI infrastructure was used in your run to solve the Kohn-Sham electronic structure.
  Please check out http://elsi-interchange.org to learn more.
  If scalability is important for your project, please acknowledge ELSI by citing:

    V. W-z. Yu, F. Corsetti, A. Garcia, W. P. Huhn, M. Jacquelin, W. Jia,
    B. Lange, L. Lin, J. Lu, W. Mi, A. Seifitokaldani, A. Vazquez-Mayagoitia,
    C. Yang, H. Yang, and V. Blum
    'ELSI: A unified software interface for Kohn-Sham electronic structure solvers'
    Computer Physics Communications 222, 267-285 (2018).
    http://doi.org/10.1016/j.cpc.2017.09.007


  For the real-space grid partitioning and parallelization used in this calculation, please cite:

    Ville Havu, Volker Blum, Paula Havu, and Matthias Scheffler,
    'Efficient O(N) integration for all-electron electronic structure calculation'
    'using numerically tabulated basis functions'
    Journal of Computational Physics 228, 8367-8379 (2009).
    http://doi.org/10.1016/j.jcp.2009.08.008

  Of course, there are many other important community references, e.g., those cited in the
  above references. Our list is limited to references that describe implementations in the
  FHI-aims code. The reason is purely practical (length of this list) - please credit others as well.

 *********************************************************************
   Your are running FHI-aims on many cores. To achieve optimal
   performance for your particular architecture, it might be necessary
   to tune the following compilation and calculation settings:
    * Choosing the right Scalapack and MPI Libraries for your
       architecture is essential. If in doubt, refer to the
       documentation or the sysadmin of your supercomputer.
    * Please review our documentation of Makefile choices, particularly
       for ELPA, in the manual.
    * Some of the following FHI-aims keywords or combination thereof
       may be helpful:
        - FHI-aims setting: use_local_index .true.
        - FHI-aims setting: load_balancing .true.
        - FHI-aims setting: use_alltoall .false.
   Be mindful that the usefulness of these keywords can depend on your
   actual run and on the actual computer you are using. Please check
   their description in the manual and perform specific benchmarks to
   determine what is optimal for your computer. More detailed
   information and examples can be found at:
 http://aimsclub.fhi-berlin.mpg.de/wiki/index.php/Large_scale_settings
 *********************************************************************

------------------------------------------------------------
          Leaving FHI-aims.
          Date     :  20220808, Time     :  192318.924

          Computational steps:
          | Number of self-consistency cycles          :           33
          | Number of SCF (re)initializations          :            2

          Detailed time accounting                     :  max(cpu_time)    wall_clock(cpu1)
          | Total time                                  :     1801.960 s        1802.724 s
          | Preparation time                            :        0.656 s           0.728 s
          | Boundary condition initalization            :        4.818 s           4.760 s
          | Grid partitioning                           :        7.551 s           7.548 s
          | Preloading free-atom quantities on grid     :        1.072 s           1.071 s
          | Free-atom superposition energy              :        0.117 s           0.116 s
          | Total time for integrations                 :       71.454 s          71.420 s
          | Total time for solution of K.-S. equations  :     1389.266 s        1389.345 s
          | Total time for density & force components   :      261.236 s         261.248 s
          | Total time for mixing & preconditioning     :       20.603 s          18.563 s
          | Total time for Hartree multipole update     :        1.961 s           1.959 s
          | Total time for Hartree multipole sum        :       29.185 s          29.185 s
          | Total time for total energy evaluation      :        0.253 s           0.238 s
          | Total time NSC force correction             :        2.418 s           2.418 s
          | Total time for scaled ZORA corrections      :        0.000 s           0.000 s

          Partial memory accounting:
          | Residual value for overall tracked memory usage across tasks:     0.000000 MB (should be 0.000000 MB)
          | Peak values for overall tracked memory usage:
          |   Minimum:      992.622 MB (on task   24 after allocating temp_ham_ovlp)
          |   Maximum:     1002.525 MB (on task   31 after allocating temp_ham_ovlp)
          |   Average:     1000.984 MB
          | Largest tracked array allocation:
          |   Minimum:      269.956 MB (overlap_matrix on task    0)
          |   Maximum:      269.956 MB (overlap_matrix on task    0)
          |   Average:      269.956 MB
          Note:  These values currently only include a subset of arrays which are explicitly tracked.
          The "true" memory usage will be greater.

          Have a nice day.
------------------------------------------------------------
